 Entering Gaussian System, Link 0=g09
 Input=c2h6_012.com
 Output=c2h6_012.log
 Initial command:
 /programs/64bit/g09/g09-gfortran/bin/l1.exe /data/scratch/Gau-6127.inp -scrdir=/data/scratch/
 Entering Link 1 = /programs/64bit/g09/g09-gfortran/bin/l1.exe PID=      6128.
  
 Copyright (c) 1988,1990,1992,1993,1995,1998,2003,2009, Gaussian, Inc.
                  All Rights Reserved.
  
 This is part of the Gaussian(R) 09 program.  It is based on
 the Gaussian(R) 03 system (copyright 2003, Gaussian, Inc.),
 the Gaussian(R) 98 system (copyright 1998, Gaussian, Inc.),
 the Gaussian(R) 94 system (copyright 1995, Gaussian, Inc.),
 the Gaussian 92(TM) system (copyright 1992, Gaussian, Inc.),
 the Gaussian 90(TM) system (copyright 1990, Gaussian, Inc.),
 the Gaussian 88(TM) system (copyright 1988, Gaussian, Inc.),
 the Gaussian 86(TM) system (copyright 1986, Carnegie Mellon
 University), and the Gaussian 82(TM) system (copyright 1983,
 Carnegie Mellon University). Gaussian is a federally registered
 trademark of Gaussian, Inc.
  
 This software contains proprietary and confidential information,
 including trade secrets, belonging to Gaussian, Inc.
  
 This software is provided under written license and may be
 used, copied, transmitted, or stored only in accord with that
 written license.
  
 The following legend is applicable only to US Government
 contracts under FAR:
  
                    RESTRICTED RIGHTS LEGEND
  
 Use, reproduction and disclosure by the US Government is
 subject to restrictions as set forth in subparagraphs (a)
 and (c) of the Commercial Computer Software - Restricted
 Rights clause in FAR 52.227-19.
  
 Gaussian, Inc.
 340 Quinnipiac St., Bldg. 40, Wallingford CT 06492
  
  
 ---------------------------------------------------------------
 Warning -- This program may not be used in any manner that
 competes with the business of Gaussian, Inc. or will provide
 assistance to any competitor of Gaussian, Inc.  The licensee
 of this program is prohibited from giving any competitor of
 Gaussian, Inc. access to this program.  By using this program,
 the user acknowledges that Gaussian, Inc. is engaged in the
 business of creating and licensing software in the field of
 computational chemistry and represents and warrants to the
 licensee that it is not a competitor of Gaussian, Inc. and that
 it will not use this program in any manner prohibited above.
 ---------------------------------------------------------------
  

 Cite this work as:
 Gaussian 09, Revision A.02,
 M. J. Frisch, G. W. Trucks, H. B. Schlegel, G. E. Scuseria, 
 M. A. Robb, J. R. Cheeseman, G. Scalmani, V. Barone, B. Mennucci, 
 G. A. Petersson, H. Nakatsuji, M. Caricato, X. Li, H. P. Hratchian, 
 A. F. Izmaylov, J. Bloino, G. Zheng, J. L. Sonnenberg, M. Hada, 
 M. Ehara, K. Toyota, R. Fukuda, J. Hasegawa, M. Ishida, T. Nakajima, 
 Y. Honda, O. Kitao, H. Nakai, T. Vreven, J. A. Montgomery, Jr., 
 J. E. Peralta, F. Ogliaro, M. Bearpark, J. J. Heyd, E. Brothers, 
 K. N. Kudin, V. N. Staroverov, R. Kobayashi, J. Normand, 
 K. Raghavachari, A. Rendell, J. C. Burant, S. S. Iyengar, J. Tomasi, 
 M. Cossi, N. Rega, J. M. Millam, M. Klene, J. E. Knox, J. B. Cross, 
 V. Bakken, C. Adamo, J. Jaramillo, R. Gomperts, R. E. Stratmann, 
 O. Yazyev, A. J. Austin, R. Cammi, C. Pomelli, J. W. Ochterski, 
 R. L. Martin, K. Morokuma, V. G. Zakrzewski, G. A. Voth, 
 P. Salvador, J. J. Dannenberg, S. Dapprich, A. D. Daniels, 
 O. Farkas, J. B. Foresman, J. V. Ortiz, J. Cioslowski, 
 and D. J. Fox, Gaussian, Inc., Wallingford CT, 2009.
 
 ******************************************
 Gaussian 09:  EM64L-G09RevA.02 11-Jun-2009
                26-May-2021 
 ******************************************
 %chk=c2h6_012.chk
 %mem=100MB
 --------------------------------
 #p b3lyp/6-31+g(d,p) force nosym
 --------------------------------
 1/10=7,30=1,38=1/1,3;
 2/12=2,15=1,17=6,18=5,40=1/2;
 3/5=1,6=6,7=111,11=2,16=1,25=1,30=1,71=1,74=-5/1,2,3;
 4//1;
 5/5=2,38=5/2;
 6/7=2,8=2,9=2,10=2,28=1/1;
 7/29=1,30=1/1,2,3,16;
 1/10=7,30=1/3;
 99//99;
 Leave Link    1 at Wed May 26 19:09:45 2021, MaxMem=   13107200 cpu:       0.0
 (Enter /programs/64bit/g09/g09-gfortran/bin/l101.exe)
 -------------
 c2h6 molecule
 -------------
 Symbolic Z-matrix:
 Charge =  0 Multiplicity = 1
 C1
 C2                   1    d1
 H3                   1    d2       2    a1
 H4                   1    d3       2    a2       3    t1       0
 H5                   1    d4       2    a3       3    t2       0
 H6                   2    d5       1    a4       3    t3       0
 H7                   2    d6       1    a5       6    t4       0
 H8                   2    d7       1    a6       6    t5       0
       Variables:
       Constants:
  d1                    1.53481                  
  a1                  178.56803                  
  t1                  119.67633                  
  d2                    1.20779                  
  a2                  109.66988                  
  t2                 -178.6745                   
  d3                    1.01251                  
  d4                    1.14596                  
  a3                  108.64131                  
  d5                    1.08568                  
  a4                  108.70922                  
  t3                  179.99769                  
  d6                    1.10161                  
  a5                  108.70996                  
  t4                  120.05763                  
  d7                    1.37578                  
  a6                  178.68004                  
  t5                 -120.                       
 
 NAtoms=      8 NQM=      8 NQMF=      0 NMic=      0 NMicF=      0 NTot=      8.
                    Isotopes and Nuclear Properties:
 (Nuclear quadrupole moments (NQMom) in fm**2, nuclear magnetic moments (NMagM)
  in nuclear magnetons)

  Atom         1           2           3           4           5           6           7           8
 IAtWgt=          12          12           1           1           1           1           1           1
 AtmWgt=  12.0000000  12.0000000   1.0078250   1.0078250   1.0078250   1.0078250   1.0078250   1.0078250
 NucSpn=           0           0           1           1           1           1           1           1
 AtZEff=   0.0000000   0.0000000   0.0000000   0.0000000   0.0000000   0.0000000   0.0000000   0.0000000
 NQMom=    0.0000000   0.0000000   0.0000000   0.0000000   0.0000000   0.0000000   0.0000000   0.0000000
 NMagM=    0.0000000   0.0000000   2.7928460   2.7928460   2.7928460   2.7928460   2.7928460   2.7928460
 Leave Link  101 at Wed May 26 19:09:45 2021, MaxMem=   13107200 cpu:       0.0
 (Enter /programs/64bit/g09/g09-gfortran/bin/l103.exe)

 GradGradGradGradGradGradGradGradGradGradGradGradGradGradGradGradGradGrad
 Berny optimization.
 Initialization pass.
                       ----------------------------
                       !    Initial Parameters    !
                       ! (Angstroms and Degrees)  !
 ----------------------                            ----------------------
 !      Name          Value   Derivative information (Atomic Units)     !
 ------------------------------------------------------------------------
 !       d1          1.5348   Frozen                                    !
 !       a1        178.568    Frozen                                    !
 !       t1        119.6763   Frozen                                    !
 !       d2          1.2078   Frozen                                    !
 !       a2        109.6699   Frozen                                    !
 !       t2       -178.6745   Frozen                                    !
 !       d3          1.0125   Frozen                                    !
 !       d4          1.146    Frozen                                    !
 !       a3        108.6413   Frozen                                    !
 !       d5          1.0857   Frozen                                    !
 !       a4        108.7092   Frozen                                    !
 !       t3        179.9977   Frozen                                    !
 !       d6          1.1016   Frozen                                    !
 !       a5        108.71     Frozen                                    !
 !       t4        120.0576   Frozen                                    !
 !       d7          1.3758   Frozen                                    !
 !       a6        178.68     Frozen                                    !
 !       t5       -120.0      Frozen                                    !
 ------------------------------------------------------------------------
 Trust Radius=3.00D-01 FncErr=1.00D-07 GrdErr=1.00D-07
 Number of steps in this run=   2 maximum allowed number of steps=   2.
 GradGradGradGradGradGradGradGradGradGradGradGradGradGradGradGradGradGrad

 Leave Link  103 at Wed May 26 19:09:45 2021, MaxMem=   13107200 cpu:       0.0
 (Enter /programs/64bit/g09/g09-gfortran/bin/l202.exe)
                          Input orientation:                          
 ---------------------------------------------------------------------
 Center     Atomic      Atomic             Coordinates (Angstroms)
 Number     Number       Type             X           Y           Z
 ---------------------------------------------------------------------
      1          6           0        0.000000    0.000000    0.000000
      2          6           0        0.000000    0.000000    1.534809
      3          1           0        0.030183    0.000000   -1.207413
      4          1           0       -0.472040   -0.828369   -0.340810
      5          1           0       -1.085550    0.025118   -0.366297
      6          1           0       -1.028306    0.000042    1.883056
      7          1           0        0.522570   -0.903103    1.888181
      8          1           0        0.015847    0.027446    2.910228
 ---------------------------------------------------------------------
                    Distance matrix (angstroms):
                    1          2          3          4          5
     1  C    0.000000
     2  C    1.534809   0.000000
     3  H    1.207790   2.742388   0.000000
     4  H    1.012506   2.104035   1.299779   0.000000
     5  H    1.145960   2.189351   1.397485   1.051420   0.000000
     6  H    2.145534   1.085675   3.266711   2.437473   2.250222
     7  H    2.157291   1.101611   3.262015   2.441974   2.920671
     8  H    2.910401   1.375784   4.117758   3.397014   3.456689
                    6          7          8
     6  H    0.000000
     7  H    1.794691   0.000000
     8  H    1.464954   1.472165   0.000000
 Symmetry turned off by external request.
 Stoichiometry    C2H6
 Framework group  C1[X(C2H6)]
 Deg. of freedom    18
 Full point group                 C1      NOp   1
 Rotational constants (GHZ):    126.9707329     17.3199498     16.6230089
 Leave Link  202 at Wed May 26 19:09:45 2021, MaxMem=   13107200 cpu:       0.0
 (Enter /programs/64bit/g09/g09-gfortran/bin/l301.exe)
 Standard basis: 6-31+G(d,p) (6D, 7F)
 Ernie: Thresh=  0.10000D-02 Tol=  0.10000D-05 Strict=F.
 Integral buffers will be    131072 words long.
 Raffenetti 2 integral format.
 Two-electron integral symmetry is turned off.
    68 basis functions,   106 primitive gaussians,    68 cartesian basis functions
     9 alpha electrons        9 beta electrons
       nuclear repulsion energy        41.1380408942 Hartrees.
 IExCor=  402 DFT=T Ex+Corr=B3LYP ExCW=0 ScaHFX=  0.200000
 ScaDFX=  0.800000  0.720000  1.000000  0.810000 ScalE2=  1.000000  1.000000
 IRadAn=      0 IRanWt=     -1 IRanGd=            0 ICorTp=0
 NAtoms=    8 NActive=    8 NUniq=    8 SFac= 7.50D-01 NAtFMM=   80 NAOKFM=F Big=F
 Leave Link  301 at Wed May 26 19:09:46 2021, MaxMem=   13107200 cpu:       0.0
 (Enter /programs/64bit/g09/g09-gfortran/bin/l302.exe)
 NPDir=0 NMtPBC=     1 NCelOv=     1 NCel=       1 NClECP=     1 NCelD=      1
         NCelK=      1 NCelE2=     1 NClLst=     1 CellRange=     0.0.
 One-electron integrals computed using PRISM.
 NBasis=    68 RedAO= T  NBF=    68
 NBsUse=    68 1.00D-06 NBFU=    68
 Precomputing XC quadrature grid using
 IXCGrd= 2 IRadAn=           0 IRanWt=          -1 IRanGd=           0 AccXCQ= 1.00D-10.
 NRdTot=     510 NPtTot=       65100 NUsed=       68787 NTot=       68819
 NSgBfM=    68    68    68    68    68 NAtAll=     8     8.
 Leave Link  302 at Wed May 26 19:09:46 2021, MaxMem=   13107200 cpu:       0.1
 (Enter /programs/64bit/g09/g09-gfortran/bin/l303.exe)
 DipDrv:  MaxL=1.
 Leave Link  303 at Wed May 26 19:09:46 2021, MaxMem=   13107200 cpu:       0.0
 (Enter /programs/64bit/g09/g09-gfortran/bin/l401.exe)
 Harris functional with IExCor=  402 diagonalized for initial guess.
 ExpMin= 4.38D-02 ExpMax= 3.05D+03 ExpMxC= 4.57D+02 IAcc=2 IRadAn=         0 AccDes= 0.00D+00
 HarFok:  IExCor=  402 AccDes= 0.00D+00 IRadAn=         0 IDoV= 1
 ScaDFX=  1.000000  1.000000  1.000000  1.000000
 FoFCou: FMM=F IPFlag=           0 FMFlag=      100000 FMFlg1=           0
         NFxFlg=           0 DoJE=T BraDBF=F KetDBF=T FulRan=T
         Omega=  0.000000  0.000000  1.000000  0.000000  0.000000 ICntrl=     500 IOpCl=  0
         NMat0=    1 NMatS0=    1 NMatT0=    0 NMatD0=    1 NMtDS0=    0 NMtDT0=    0
         I1Cent=           4 NGrid=           0.
 Symmetry not used in FoFCou.
 Harris En= -79.5768811993219    
 Leave Link  401 at Wed May 26 19:09:46 2021, MaxMem=   13107200 cpu:       0.7
 (Enter /programs/64bit/g09/g09-gfortran/bin/l502.exe)
 Closed shell SCF:
 Requested convergence on RMS density matrix=1.00D-08 within 128 cycles.
 Requested convergence on MAX density matrix=1.00D-06.
 Requested convergence on             energy=1.00D-06.
 No special actions if energy rises.
 Using DIIS extrapolation, IDIIS=  1040.
 Two-electron integral symmetry not used.
        68702 words used for storage of precomputed grid.
 Keep R1 ints in memory in canonical form, NReq=3743087.
 IEnd=      101552 IEndB=      101552 NGot=    13107200 MDV=    10273922
 LenX=    10273922 LenY=    10268857
 Symmetry not used in FoFDir.
 MinBra= 0 MaxBra= 2 Meth= 1.
 IRaf=       0 NMat=   1 IRICut=       1 DoRegI=T DoRafI=F ISym2E= 0 JSym2E=0.

 Cycle   1  Pass 1  IDiag  1:
 E= -79.3739373876790    
 DIIS: error= 3.39D-02 at cycle   1 NSaved=   1.
 NSaved= 1 IEnMin= 1 EnMin= -79.3739373876790     IErMin= 1 ErrMin= 3.39D-02
 ErrMax= 3.39D-02 EMaxC= 1.00D-01 BMatC= 1.27D-01 BMatP= 1.27D-01
 IDIUse=3 WtCom= 6.61D-01 WtEn= 3.39D-01
 Coeff-Com:  0.100D+01
 Coeff-En:   0.100D+01
 Coeff:      0.100D+01
 Gap=     0.138 Goal=   None    Shift=    0.000
 GapD=    0.138 DampG=1.000 DampE=0.500 DampFc=0.5000 IDamp=-1.
 Damping current iteration by 5.00D-01
 RMSDP=6.24D-02 MaxDP=1.54D+00              OVMax= 3.45D-01

 Cycle   2  Pass 1  IDiag  1:
 E= -79.4054840695518     Delta-E=       -0.031546681873 Rises=F Damp=T
 DIIS: error= 1.50D-02 at cycle   2 NSaved=   2.
 NSaved= 2 IEnMin= 2 EnMin= -79.4054840695518     IErMin= 2 ErrMin= 1.50D-02
 ErrMax= 1.50D-02 EMaxC= 1.00D-01 BMatC= 1.85D-02 BMatP= 1.27D-01
 IDIUse=3 WtCom= 8.50D-01 WtEn= 1.50D-01
 Coeff-Com:  0.247D+00 0.753D+00
 Coeff-En:   0.402D+00 0.598D+00
 Coeff:      0.270D+00 0.730D+00
 Gap=     0.186 Goal=   None    Shift=    0.000
 RMSDP=2.45D-02 MaxDP=6.68D-01 DE=-3.15D-02 OVMax= 2.60D-01

 Cycle   3  Pass 1  IDiag  1:
 E= -79.5218789238351     Delta-E=       -0.116394854283 Rises=F Damp=F
 DIIS: error= 3.09D-03 at cycle   3 NSaved=   3.
 NSaved= 3 IEnMin= 3 EnMin= -79.5218789238351     IErMin= 3 ErrMin= 3.09D-03
 ErrMax= 3.09D-03 EMaxC= 1.00D-01 BMatC= 8.66D-04 BMatP= 1.85D-02
 IDIUse=3 WtCom= 9.69D-01 WtEn= 3.09D-02
 Coeff-Com:  0.544D-01 0.193D+00 0.752D+00
 Coeff-En:   0.000D+00 0.000D+00 0.100D+01
 Coeff:      0.528D-01 0.187D+00 0.760D+00
 Gap=     0.179 Goal=   None    Shift=    0.000
 RMSDP=2.01D-03 MaxDP=4.04D-02 DE=-1.16D-01 OVMax= 2.00D-02

 Cycle   4  Pass 1  IDiag  1:
 E= -79.5227379260707     Delta-E=       -0.000859002236 Rises=F Damp=F
 DIIS: error= 1.43D-03 at cycle   4 NSaved=   4.
 NSaved= 4 IEnMin= 4 EnMin= -79.5227379260707     IErMin= 4 ErrMin= 1.43D-03
 ErrMax= 1.43D-03 EMaxC= 1.00D-01 BMatC= 1.47D-04 BMatP= 8.66D-04
 IDIUse=3 WtCom= 9.86D-01 WtEn= 1.43D-02
 Coeff-Com:  0.890D-02 0.189D-01 0.292D+00 0.680D+00
 Coeff-En:   0.000D+00 0.000D+00 0.680D-02 0.993D+00
 Coeff:      0.878D-02 0.186D-01 0.288D+00 0.685D+00
 Gap=     0.179 Goal=   None    Shift=    0.000
 RMSDP=7.19D-04 MaxDP=1.52D-02 DE=-8.59D-04 OVMax= 6.18D-03

 Cycle   5  Pass 1  IDiag  1:
 E= -79.5228695772126     Delta-E=       -0.000131651142 Rises=F Damp=F
 DIIS: error= 7.55D-04 at cycle   5 NSaved=   5.
 NSaved= 5 IEnMin= 5 EnMin= -79.5228695772126     IErMin= 5 ErrMin= 7.55D-04
 ErrMax= 7.55D-04 EMaxC= 1.00D-01 BMatC= 2.97D-05 BMatP= 1.47D-04
 IDIUse=3 WtCom= 9.92D-01 WtEn= 7.55D-03
 Coeff-Com:  0.142D-02-0.638D-02 0.102D+00 0.381D+00 0.522D+00
 Coeff-En:   0.000D+00 0.000D+00 0.000D+00 0.806D-01 0.919D+00
 Coeff:      0.141D-02-0.633D-02 0.101D+00 0.379D+00 0.525D+00
 Gap=     0.179 Goal=   None    Shift=    0.000
 RMSDP=1.09D-04 MaxDP=1.26D-03 DE=-1.32D-04 OVMax= 1.96D-03

 Cycle   6  Pass 1  IDiag  1:
 E= -79.5229000134720     Delta-E=       -0.000030436259 Rises=F Damp=F
 DIIS: error= 7.55D-05 at cycle   6 NSaved=   6.
 NSaved= 6 IEnMin= 6 EnMin= -79.5229000134720     IErMin= 6 ErrMin= 7.55D-05
 ErrMax= 7.55D-05 EMaxC= 1.00D-01 BMatC= 5.63D-07 BMatP= 2.97D-05
 IDIUse=1 WtCom= 1.00D+00 WtEn= 0.00D+00
 Coeff-Com:  0.840D-03-0.266D-02 0.191D-01 0.754D-01 0.166D+00 0.742D+00
 Coeff:      0.840D-03-0.266D-02 0.191D-01 0.754D-01 0.166D+00 0.742D+00
 Gap=     0.179 Goal=   None    Shift=    0.000
 RMSDP=1.92D-05 MaxDP=2.08D-04 DE=-3.04D-05 OVMax= 3.45D-04

 Cycle   7  Pass 1  IDiag  1:
 E= -79.5229006351705     Delta-E=       -0.000000621699 Rises=F Damp=F
 DIIS: error= 1.44D-05 at cycle   7 NSaved=   7.
 NSaved= 7 IEnMin= 7 EnMin= -79.5229006351705     IErMin= 7 ErrMin= 1.44D-05
 ErrMax= 1.44D-05 EMaxC= 1.00D-01 BMatC= 1.91D-08 BMatP= 5.63D-07
 IDIUse=1 WtCom= 1.00D+00 WtEn= 0.00D+00
 Coeff-Com:  0.318D-03-0.546D-03 0.130D-02 0.289D-02 0.229D-01 0.182D+00
 Coeff-Com:  0.791D+00
 Coeff:      0.318D-03-0.546D-03 0.130D-02 0.289D-02 0.229D-01 0.182D+00
 Coeff:      0.791D+00
 Gap=     0.179 Goal=   None    Shift=    0.000
 RMSDP=5.14D-06 MaxDP=8.39D-05 DE=-6.22D-07 OVMax= 6.61D-05

 Cycle   8  Pass 1  IDiag  1:
 E= -79.5229006579639     Delta-E=       -0.000000022793 Rises=F Damp=F
 DIIS: error= 3.00D-06 at cycle   8 NSaved=   8.
 NSaved= 8 IEnMin= 8 EnMin= -79.5229006579639     IErMin= 8 ErrMin= 3.00D-06
 ErrMax= 3.00D-06 EMaxC= 1.00D-01 BMatC= 9.10D-10 BMatP= 1.91D-08
 IDIUse=1 WtCom= 1.00D+00 WtEn= 0.00D+00
 Coeff-Com:  0.730D-04-0.993D-04-0.358D-03-0.246D-02 0.757D-03 0.183D-01
 Coeff-Com:  0.214D+00 0.770D+00
 Coeff:      0.730D-04-0.993D-04-0.358D-03-0.246D-02 0.757D-03 0.183D-01
 Coeff:      0.214D+00 0.770D+00
 Gap=     0.179 Goal=   None    Shift=    0.000
 RMSDP=1.38D-06 MaxDP=2.33D-05 DE=-2.28D-08 OVMax= 1.95D-05

 Cycle   9  Pass 1  IDiag  1:
 E= -79.5229006591773     Delta-E=       -0.000000001213 Rises=F Damp=F
 DIIS: error= 5.39D-07 at cycle   9 NSaved=   9.
 NSaved= 9 IEnMin= 9 EnMin= -79.5229006591773     IErMin= 9 ErrMin= 5.39D-07
 ErrMax= 5.39D-07 EMaxC= 1.00D-01 BMatC= 1.29D-11 BMatP= 9.10D-10
 IDIUse=1 WtCom= 1.00D+00 WtEn= 0.00D+00
 Coeff-Com: -0.386D-05 0.734D-05-0.585D-04-0.403D-03-0.690D-03-0.734D-02
 Coeff-Com: -0.443D-02 0.125D+00 0.888D+00
 Coeff:     -0.386D-05 0.734D-05-0.585D-04-0.403D-03-0.690D-03-0.734D-02
 Coeff:     -0.443D-02 0.125D+00 0.888D+00
 Gap=     0.179 Goal=   None    Shift=    0.000
 RMSDP=3.88D-07 MaxDP=8.16D-06 DE=-1.21D-09 OVMax= 2.72D-06

 Cycle  10  Pass 1  IDiag  1:
 E= -79.5229006591946     Delta-E=       -0.000000000017 Rises=F Damp=F
 DIIS: error= 2.84D-08 at cycle  10 NSaved=  10.
 NSaved=10 IEnMin=10 EnMin= -79.5229006591946     IErMin=10 ErrMin= 2.84D-08
 ErrMax= 2.84D-08 EMaxC= 1.00D-01 BMatC= 1.33D-13 BMatP= 1.29D-11
 IDIUse=1 WtCom= 1.00D+00 WtEn= 0.00D+00
 Coeff-Com: -0.102D-05 0.732D-06 0.219D-05 0.390D-05-0.326D-04-0.610D-03
 Coeff-Com: -0.182D-02-0.543D-02 0.681D-01 0.940D+00
 Coeff:     -0.102D-05 0.732D-06 0.219D-05 0.390D-05-0.326D-04-0.610D-03
 Coeff:     -0.182D-02-0.543D-02 0.681D-01 0.940D+00
 Gap=     0.179 Goal=   None    Shift=    0.000
 RMSDP=5.24D-08 MaxDP=1.10D-06 DE=-1.73D-11 OVMax= 3.17D-07

 Cycle  11  Pass 1  IDiag  1:
 E= -79.5229006591943     Delta-E=        0.000000000000 Rises=F Damp=F
 DIIS: error= 1.79D-08 at cycle  11 NSaved=  11.
 NSaved=11 IEnMin=10 EnMin= -79.5229006591946     IErMin=11 ErrMin= 1.79D-08
 ErrMax= 1.79D-08 EMaxC= 1.00D-01 BMatC= 1.92D-14 BMatP= 1.33D-13
 IDIUse=1 WtCom= 1.00D+00 WtEn= 0.00D+00
 Coeff-Com:  0.475D-07 0.285D-07 0.140D-05 0.424D-05 0.590D-05 0.523D-04
 Coeff-Com: -0.193D-03-0.495D-02-0.138D-01 0.101D+00 0.918D+00
 Coeff:      0.475D-07 0.285D-07 0.140D-05 0.424D-05 0.590D-05 0.523D-04
 Coeff:     -0.193D-03-0.495D-02-0.138D-01 0.101D+00 0.918D+00
 Gap=     0.179 Goal=   None    Shift=    0.000
 RMSDP=5.51D-09 MaxDP=1.04D-07 DE= 2.70D-13 OVMax= 4.91D-08

 SCF Done:  E(RB3LYP) =  -79.5229006592     A.U. after   11 cycles
             Convg  =    0.5505D-08             -V/T =  2.0113
 KE= 7.863569807205D+01 PE=-2.649554493131D+02 EE= 6.565880968767D+01
 Leave Link  502 at Wed May 26 19:09:54 2021, MaxMem=   13107200 cpu:       7.3
 (Enter /programs/64bit/g09/g09-gfortran/bin/l601.exe)
 Copying SCF densities to generalized density rwf, IOpCl= 0 IROHF=0.

 **********************************************************************

            Population analysis using the SCF density.

 **********************************************************************

 Alpha  occ. eigenvalues --  -10.23047 -10.21498  -0.79700  -0.68490  -0.47747
 Alpha  occ. eigenvalues --   -0.43588  -0.36454  -0.29278  -0.24028
 Alpha virt. eigenvalues --   -0.06145  -0.00446   0.02134   0.05270   0.06062
 Alpha virt. eigenvalues --    0.06775   0.08650   0.09213   0.13787   0.15476
 Alpha virt. eigenvalues --    0.17268   0.21765   0.23486   0.26349   0.36831
 Alpha virt. eigenvalues --    0.64738   0.65916   0.68524   0.71039   0.74010
 Alpha virt. eigenvalues --    0.79986   0.83072   0.88080   0.92233   0.95542
 Alpha virt. eigenvalues --    0.97299   1.03952   1.13547   1.20214   1.28705
 Alpha virt. eigenvalues --    1.31814   1.57745   1.67034   1.76245   1.85118
 Alpha virt. eigenvalues --    1.86992   1.95801   2.00424   2.13790   2.18501
 Alpha virt. eigenvalues --    2.20935   2.26035   2.29828   2.42607   2.48508
 Alpha virt. eigenvalues --    2.53710   2.58508   2.70878   2.79233   2.83541
 Alpha virt. eigenvalues --    2.96862   3.08530   3.13788   3.26222   3.40744
 Alpha virt. eigenvalues --    3.51117   3.60991   4.23660   4.75863
          Condensed to atoms (all electrons):
              1          2          3          4          5          6
     1  C    5.687548  -0.139152   0.340811   0.403507   0.221642  -0.131311
     2  C   -0.139152   5.529097   0.056234  -0.161434   0.017366   0.483440
     3  H    0.340811   0.056234   0.614921  -0.100745  -0.062337   0.003499
     4  H    0.403507  -0.161434  -0.100745   0.854620  -0.087601  -0.005730
     5  H    0.221642   0.017366  -0.062337  -0.087601   0.854352  -0.020016
     6  H   -0.131311   0.483440   0.003499  -0.005730  -0.020016   0.611786
     7  H   -0.185592   0.520035   0.001895  -0.020793   0.007898  -0.031479
     8  H    0.138092   0.148426  -0.000380   0.004512  -0.000058  -0.062744
              7          8
     1  C   -0.185592   0.138092
     2  C    0.520035   0.148426
     3  H    0.001895  -0.000380
     4  H   -0.020793   0.004512
     5  H    0.007898  -0.000058
     6  H   -0.031479  -0.062744
     7  H    0.629330  -0.069740
     8  H   -0.069740   0.681856
 Mulliken atomic charges:
              1
     1  C   -0.335546
     2  C   -0.454012
     3  H    0.146103
     4  H    0.113663
     5  H    0.068754
     6  H    0.152555
     7  H    0.148447
     8  H    0.160036
 Sum of Mulliken atomic charges =  -0.00000
 Mulliken charges with hydrogens summed into heavy atoms:
              1
     1  C   -0.007025
     2  C    0.007025
 Sum of Mulliken charges with hydrogens summed into heavy atoms =  -0.00000
 Electronic spatial extent (au):  <R**2>=            162.4540
 Charge=             -0.0000 electrons
 Dipole moment (field-independent basis, Debye):
    X=             -1.2611    Y=             -1.3429    Z=              0.1411  Tot=              1.8476
 Quadrupole moment (field-independent basis, Debye-Ang):
   XX=            -16.3918   YY=            -18.1028   ZZ=            -12.7358
   XY=              0.0960   XZ=             -0.3268   YZ=             -1.1891
 Traceless Quadrupole moment (field-independent basis, Debye-Ang):
   XX=             -0.6484   YY=             -2.3593   ZZ=              3.0077
   XY=              0.0960   XZ=             -0.3268   YZ=             -1.1891
 Octapole moment (field-independent basis, Debye-Ang**2):
  XXX=              3.3928  YYY=              2.3728  ZZZ=            -30.9241  XYY=              1.4384
  XXY=              0.1747  XXZ=            -12.6451  XZZ=             -2.6740  YZZ=             -5.2719
  YYZ=            -14.3375  XYZ=             -1.7911
 Hexadecapole moment (field-independent basis, Debye-Ang**3):
 XXXX=            -33.6827 YYYY=            -31.6689 ZZZZ=           -165.1147 XXXY=              0.5120
 XXXZ=             -0.7446 YYYX=              0.1396 YYYZ=              1.0943 ZZZX=             -8.2964
 ZZZY=            -13.0617 XXYY=            -10.8631 XXZZ=            -37.8907 YYZZ=            -41.1722
 XXYZ=              0.5517 YYXZ=              0.4659 ZZXY=             -2.4645
 N-N= 4.113804089420D+01 E-N=-2.649554501750D+02  KE= 7.863569807205D+01
 No NMR shielding tensors so no spin-rotation constants.
 Leave Link  601 at Wed May 26 19:09:54 2021, MaxMem=   13107200 cpu:       0.1
 (Enter /programs/64bit/g09/g09-gfortran/bin/l701.exe)
 Compute integral first derivatives.
 ... and contract with generalized density number  0.
 Leave Link  701 at Wed May 26 19:09:54 2021, MaxMem=   13107200 cpu:       0.1
 (Enter /programs/64bit/g09/g09-gfortran/bin/l702.exe)
 L702 exits ... SP integral derivatives will be done elsewhere.
 Leave Link  702 at Wed May 26 19:09:54 2021, MaxMem=   13107200 cpu:       0.0
 (Enter /programs/64bit/g09/g09-gfortran/bin/l703.exe)
 Compute integral first derivatives, UseDBF=F ICtDFT=           0.
 Integral derivatives from FoFDir, PRISM(SPDF).
 Calling FoFJK, ICntrl=      2127 FMM=F ISym2X=0 I1Cent= 0 IOpClX= 0 NMat=1 NMatS=1 NMatT=0.
 FoFCou: FMM=F IPFlag=           0 FMFlag=      100000 FMFlg1=         800
         NFxFlg=           0 DoJE=F BraDBF=F KetDBF=F FulRan=T
         Omega=  0.000000  0.000000  1.000000  0.000000  0.000000 ICntrl=    2127 IOpCl=  0
         NMat0=    1 NMatS0=    1 NMatT0=    0 NMatD0=    1 NMtDS0=    0 NMtDT0=    0
         I1Cent=           0 NGrid=           0.
 Symmetry not used in FoFCou.
 Leave Link  703 at Wed May 26 19:09:55 2021, MaxMem=   13107200 cpu:       1.4
 (Enter /programs/64bit/g09/g09-gfortran/bin/l716.exe)
 Dipole        =-4.96146329D-01-5.28339215D-01 5.55006687D-02
 -------------------------------------------------------------------
 Center     Atomic                   Forces (Hartrees/Bohr)
 Number     Number              X              Y              Z
 -------------------------------------------------------------------
      1        6          -0.062627875    0.035353231   -0.078009203
      2        6          -0.003190986   -0.049369257    0.081730428
      3        1           0.072951436    0.052023518    0.035813711
      4        1           0.008559332   -0.128255632    0.027097830
      5        1          -0.022444944    0.063744355    0.034369080
      6        1          -0.016717708   -0.020778737   -0.025012591
      7        1          -0.013663010   -0.018427061   -0.024427368
      8        1           0.037133756    0.065709583   -0.051561887
 -------------------------------------------------------------------
 Cartesian Forces:  Max     0.128255632 RMS     0.051444303
 -----------------------------------------------------------------------------------------------
                       Internal Coordinate Forces (Hartree/Bohr or radian)
  Cent   Atom   N1       Length/X         N2         Alpha/Y        N3         Beta/Z          J
 -----------------------------------------------------------------------------------------------
      1  C 
      2  C        1  -0.019271(     1)
      3  H        1  -0.033979(     2)      2  -0.168495(     8)
      4  H        1   0.091819(     3)      2  -0.117860(     9)      3  -0.127806(    14)     0
      5  H        1   0.011673(     4)      2  -0.087076(    10)      3   0.129699(    15)     0
      6  H        2   0.007810(     5)      1  -0.059606(    11)      3  -0.001094(    16)     0
      7  H        2   0.000789(     6)      1  -0.054245(    12)      6  -0.041515(    17)     0
      8  H        2  -0.049810(     7)      1  -0.199255(    13)      6   0.000042(    18)     0
 -----------------------------------------------------------------------------------------------
 Internal  Forces:  Max     0.199254885 RMS     0.089311654
 Force constants in Cartesian coordinates: 
                1             2             3             4             5 
      1  0.213768D+01
      2 -0.189894D+01  0.113647D+02
      3  0.142969D+00  0.110778D+00  0.759388D+00
      4 -0.335750D+01  0.435590D+01  0.369521D-01  0.746403D+01
      5  0.237090D+01 -0.691641D+01  0.233033D-01 -0.514077D+01  0.581832D+01
      6 -0.125432D-01 -0.211072D-01 -0.289837D+00 -0.680389D-01 -0.110077D+00
      7 -0.988162D-01  0.285793D-02 -0.441810D-01  0.291774D-01 -0.282647D-02
      8  0.692364D+00 -0.547624D+01 -0.294601D-01 -0.144243D+01  0.305559D+01
      9  0.355561D-02  0.714421D-04 -0.242157D+00  0.729374D-03 -0.706557D-04
     10 -0.135924D+00 -0.184414D+00 -0.693685D-01 -0.306342D-01  0.232313D-01
     11 -0.154671D+00 -0.305146D+00 -0.933389D-01  0.229940D-01 -0.347534D-02
     12 -0.667638D-01 -0.110157D+00 -0.132607D+00 -0.134591D-01 -0.237295D-01
     13 -0.264808D+00  0.626134D-02 -0.663716D-01  0.910060D-02 -0.522772D-03
     14 -0.437089D-01 -0.302077D-01 -0.112825D-01  0.400735D-01 -0.153471D-01
     15 -0.797608D-01 -0.692589D-03 -0.947871D-01 -0.242224D-01  0.496884D-03
     16  0.863876D-02 -0.138093D-04  0.000000D+00 -0.319728D+00  0.686227D-02
     17 -0.948647D-03 -0.395221D-01  0.000000D+00 -0.217846D-01 -0.480671D-01
     18  0.255087D-01 -0.360650D-04  0.000000D+00  0.987585D-01  0.202266D-01
     19  0.902012D-02  0.405514D-01  0.000000D+00 -0.120472D+00  0.654587D-01
     20  0.281288D-03  0.319718D-01  0.000000D+00  0.112455D+00 -0.261468D+00
     21 -0.126202D-01  0.217415D-01  0.000000D+00 -0.299145D-01  0.912397D-01
     22  0.170171D+01 -0.232220D+01  0.000000D+00 -0.367397D+01  0.267767D+01
     23 -0.965271D+00  0.137083D+01  0.000000D+00  0.207356D+01 -0.162915D+01
     24 -0.345326D-03 -0.598220D-03  0.000000D+00 -0.805115D-03 -0.138905D-02
                6             7             8             9            10 
      6  0.681060D+00
      7  0.000000D+00  0.757295D-01
      8  0.000000D+00  0.910893D-02  0.285105D+01
      9  0.000000D+00 -0.413273D-02  0.227704D-03  0.240950D+00
     10  0.000000D+00  0.427610D-02 -0.104327D-01  0.106893D-03  0.143002D+00
     11  0.000000D+00 -0.965933D-02 -0.633904D-02 -0.241463D-03  0.152171D+00
     12  0.000000D+00  0.175552D-01  0.298575D-01  0.438844D-03  0.630370D-01
     13  0.000000D+00 -0.103668D-01  0.422913D-03 -0.259149D-03 -0.137475D-02
     14  0.000000D+00  0.518930D-03  0.916278D-02  0.129722D-04  0.313607D-01
     15  0.000000D+00  0.307585D-01 -0.625017D-03  0.768896D-03  0.622466D-02
     16  0.786271D-01  0.000000D+00  0.111269D-05  0.000000D+00  0.000000D+00
     17  0.298630D-01  0.000000D+00  0.275624D-01  0.000000D+00  0.758103D-03
     18 -0.121005D+00  0.000000D+00  0.000000D+00  0.000000D+00  0.000000D+00
     19 -0.115114D-01  0.000000D+00 -0.235114D-01  0.000000D+00 -0.646681D-03
     20  0.786793D-01  0.000000D+00 -0.136046D-01  0.000000D+00 -0.374194D-03
     21 -0.116944D+00  0.000000D+00  0.000000D+00  0.000000D+00  0.000000D+00
     22  0.134664D-01  0.000000D+00  0.774478D+00  0.000000D+00  0.213020D-01
     23  0.226422D-01  0.000000D+00 -0.447187D+00  0.000000D+00 -0.122999D-01
     24 -0.153274D+00  0.000000D+00  0.000000D+00  0.000000D+00  0.000000D+00
               11            12            13            14            15 
     11  0.328622D+00
     12  0.977548D-01  0.130643D+00
     13  0.935341D-03 -0.369330D-03  0.267932D+00
     14 -0.204521D-01  0.627441D-02 -0.737539D-02  0.448049D-01
     15 -0.417441D-02  0.152479D-02  0.670000D-01  0.499513D-02  0.924934D-01
     16  0.000000D+00  0.000000D+00  0.000000D+00  0.000000D+00  0.000000D+00
     17 -0.431999D-03  0.000000D+00 -0.177227D-04 -0.765939D-03  0.000000D+00
     18  0.000000D+00  0.000000D+00  0.000000D+00  0.000000D+00  0.000000D+00
     19  0.368506D-03  0.000000D+00  0.151179D-04  0.653365D-03  0.000000D+00
     20  0.213232D-03  0.000000D+00  0.874779D-05  0.378062D-03  0.000000D+00
     21  0.000000D+00  0.000000D+00  0.000000D+00  0.000000D+00  0.000000D+00
     22 -0.121388D-01  0.000000D+00 -0.497991D-03 -0.215222D-01  0.000000D+00
     23  0.700898D-02  0.000000D+00  0.287542D-03  0.124270D-01  0.000000D+00
     24  0.000000D+00  0.000000D+00  0.000000D+00  0.000000D+00  0.000000D+00
               16            17            18            19            20 
     16  0.325587D+00
     17 -0.497507D-02  0.425516D-01
     18 -0.814535D-01 -0.146534D-01  0.112658D+00
     19 -0.486956D-02  0.276605D-01 -0.143822D-01  0.112669D+00
     20 -0.175615D-02  0.101178D-01 -0.518677D-02 -0.118467D+00  0.237733D+00
     21  0.271303D-02 -0.150469D-01  0.801284D-02  0.260884D-01 -0.735086D-01
     22 -0.962867D-02 -0.692592D-03 -0.284315D-01  0.428419D-02  0.785264D-02
     23 -0.118309D-03  0.855537D-02 -0.350364D-03  0.728634D-02 -0.534131D-02
     24  0.113299D-03 -0.162737D-03  0.334571D-03 -0.194755D-03  0.161064D-04
               21            22            23            24 
     21  0.108602D+00
     22  0.137332D-01  0.195680D+01
     23 -0.244257D-01 -0.110345D+01  0.682863D+00
     24  0.329168D-03  0.123190D-02  0.213390D-02  0.152610D+00
 Force constants in internal coordinates: 
                1             2             3             4             5 
      1  0.289837D+00
      2  0.000000D+00  0.241053D+00
      3  0.000000D+00  0.000000D+00  0.455554D+00
      4  0.000000D+00  0.000000D+00  0.000000D+00  0.290711D+00
      5  0.000000D+00  0.000000D+00  0.000000D+00  0.000000D+00  0.353173D+00
      6  0.000000D+00  0.000000D+00  0.000000D+00  0.000000D+00  0.000000D+00
      7  0.000000D+00  0.000000D+00  0.000000D+00  0.000000D+00  0.000000D+00
      8  0.000000D+00  0.000000D+00  0.000000D+00  0.000000D+00  0.000000D+00
      9  0.000000D+00  0.000000D+00  0.000000D+00  0.000000D+00  0.000000D+00
     10  0.000000D+00  0.000000D+00  0.000000D+00  0.000000D+00  0.000000D+00
     11  0.000000D+00  0.000000D+00  0.000000D+00  0.000000D+00  0.000000D+00
     12  0.000000D+00  0.000000D+00  0.000000D+00  0.000000D+00  0.000000D+00
     13  0.000000D+00  0.000000D+00  0.000000D+00  0.000000D+00  0.000000D+00
     14  0.000000D+00  0.000000D+00  0.000000D+00  0.000000D+00  0.000000D+00
     15  0.000000D+00  0.000000D+00  0.000000D+00  0.000000D+00  0.000000D+00
     16  0.000000D+00  0.000000D+00  0.000000D+00  0.000000D+00  0.000000D+00
     17  0.000000D+00  0.000000D+00  0.000000D+00  0.000000D+00  0.000000D+00
     18  0.000000D+00  0.000000D+00  0.000000D+00  0.000000D+00  0.000000D+00
                6             7             8             9            10 
      6  0.335046D+00
      7  0.000000D+00  0.152667D+00
      8  0.000000D+00  0.000000D+00  0.393961D+00
      9  0.000000D+00  0.000000D+00  0.814406D-01  0.326288D+00
     10  0.000000D+00  0.000000D+00  0.160495D+00  0.708091D-02  0.327975D+00
     11  0.000000D+00  0.000000D+00  0.000000D+00  0.000000D+00  0.000000D+00
     12  0.000000D+00  0.000000D+00  0.000000D+00  0.000000D+00  0.000000D+00
     13  0.000000D+00  0.000000D+00  0.000000D+00  0.000000D+00  0.000000D+00
     14  0.000000D+00  0.000000D+00  0.349547D-01  0.233218D-01  0.307797D-01
     15  0.000000D+00  0.000000D+00 -0.130698D-02 -0.261179D-01 -0.306872D-01
     16  0.000000D+00  0.000000D+00  0.000000D+00  0.000000D+00  0.000000D+00
     17  0.000000D+00  0.000000D+00  0.000000D+00  0.000000D+00  0.000000D+00
     18  0.000000D+00  0.000000D+00  0.000000D+00  0.000000D+00  0.000000D+00
               11            12            13            14            15 
     11  0.358088D+00
     12  0.381477D-01  0.358085D+00
     13  0.817923D-01  0.816531D-01  0.308731D+00
     14  0.000000D+00  0.000000D+00  0.000000D+00  0.186932D+00
     15  0.000000D+00  0.000000D+00  0.000000D+00 -0.137990D+00  0.187716D+00
     16  0.602936D-03 -0.599036D-03 -0.261479D-04  0.916469D-02  0.916469D-02
     17 -0.642611D-01 -0.616903D-01 -0.357172D-01  0.305490D-02  0.305490D-02
     18  0.317136D-02 -0.317319D-02  0.133251D-05  0.305490D-02  0.305490D-02
               16            17            18 
     16  0.106098D+00
     17  0.489657D-01  0.160679D+00
     18  0.816909D-02 -0.566965D-03  0.930376D-02
 Leave Link  716 at Wed May 26 19:09:55 2021, MaxMem=   13107200 cpu:       0.0
 (Enter /programs/64bit/g09/g09-gfortran/bin/l103.exe)

 GradGradGradGradGradGradGradGradGradGradGradGradGradGradGradGradGradGrad
 Berny optimization.
 Search for a local minimum.
 Step number   1 out of a maximum of    2
 All quantities printed in internal units (Hartrees-Bohrs-Radians)
 Second derivative matrix not updated -- first step.
 The second derivative matrix:
                          d1        a1        t1        d2        a2
           d1           0.28984
           a1           0.00000   0.39396
           t1          -0.00000   0.03495   0.18693
           d2           0.00000   0.00000   0.00000   0.24105
           a2          -0.00000   0.08144   0.02332   0.00000   0.32629
           t2          -0.00000  -0.00131  -0.13799  -0.00000  -0.02612
           d3           0.00000   0.00000   0.00000   0.00000   0.00000
           d4          -0.00000   0.00000  -0.00000  -0.00000  -0.00000
           a3           0.00000   0.16050   0.03078   0.00000   0.00708
           d5          -0.00000   0.00000   0.00000   0.00000   0.00000
           a4           0.00000   0.00000  -0.00000   0.00000  -0.00000
           t3          -0.00000   0.00000   0.00916   0.00000   0.00000
           d6           0.00000   0.00000  -0.00000   0.00000  -0.00000
           a5           0.00000   0.00000  -0.00000   0.00000   0.00000
           t4          -0.00000   0.00000   0.00305   0.00000  -0.00000
           d7           0.00000   0.00000  -0.00000   0.00000  -0.00000
           a6           0.00000   0.00000  -0.00000   0.00000   0.00000
           t5           0.00000   0.00000   0.00305   0.00000   0.00000
                          t2        d3        d4        a3        d5
           t2           0.18772
           d3           0.00000   0.45555
           d4           0.00000  -0.00000   0.29071
           a3          -0.03069  -0.00000  -0.00000   0.32798
           d5           0.00000  -0.00000  -0.00000   0.00000   0.35317
           a4          -0.00000   0.00000  -0.00000  -0.00000  -0.00000
           t3           0.00916   0.00000  -0.00000   0.00000   0.00000
           d6           0.00000   0.00000  -0.00000   0.00000  -0.00000
           a5          -0.00000  -0.00000   0.00000  -0.00000  -0.00000
           t4           0.00305   0.00000  -0.00000   0.00000   0.00000
           d7          -0.00000  -0.00000   0.00000   0.00000  -0.00000
           a6           0.00000   0.00000  -0.00000   0.00000  -0.00000
           t5           0.00305   0.00000  -0.00000   0.00000  -0.00000
                          a4        t3        d6        a5        t4
           a4           0.35809
           t3           0.00060   0.10610
           d6           0.00000  -0.00000   0.33505
           a5           0.03815  -0.00060  -0.00000   0.35808
           t4          -0.06426   0.04897  -0.00000  -0.06169   0.16068
           d7           0.00000  -0.00000   0.00000   0.00000  -0.00000
           a6           0.08179  -0.00003   0.00000   0.08165  -0.03572
           t5           0.00317   0.00817   0.00000  -0.00317  -0.00057
                          d7        a6        t5
           d7           0.15267
           a6           0.00000   0.30873
           t5           0.00000   0.00000   0.00930
     Eigenvalues --- 1000.000001000.000001000.000001000.000001000.00000
     Eigenvalues --- 1000.000001000.000001000.000001000.000001000.00000
     Eigenvalues --- 1000.000001000.000001000.000001000.000001000.00000
     Eigenvalues --- 1000.000001000.000001000.00000
 Angle between quadratic step and forces=  90.00 degrees.
 Linear search not attempted -- first point.
 Variable       Old X    -DE/DX   Delta X   Delta X   Delta X     New X
                                 (Linear)    (Quad)   (Total)
    d1        2.90037  -0.01927   0.00000   0.00000   0.00000   2.90037
    a1        3.11660  -0.16849   0.00000   0.00000   0.00000   3.11660
    t1        2.08875  -0.12781   0.00000   0.00000   0.00000   2.08875
    d2        2.28239  -0.03398   0.00000   0.00000   0.00000   2.28239
    a2        1.91410  -0.11786   0.00000   0.00000   0.00000   1.91410
    t2       -3.11846   0.12970   0.00000   0.00000   0.00000  -3.11846
    d3        1.91336   0.09182   0.00000   0.00000   0.00000   1.91336
    d4        2.16555   0.01167   0.00000   0.00000   0.00000   2.16555
    a3        1.89615  -0.08708   0.00000   0.00000   0.00000   1.89615
    d5        2.05163   0.00781   0.00000   0.00000   0.00000   2.05163
    a4        1.89733  -0.05961   0.00000   0.00000   0.00000   1.89733
    t3        3.14155  -0.00109   0.00000   0.00000   0.00000   3.14155
    d6        2.08174   0.00079   0.00000   0.00000   0.00000   2.08174
    a5        1.89735  -0.05425   0.00000   0.00000   0.00000   1.89735
    t4        2.09540  -0.04151   0.00000   0.00000   0.00000   2.09540
    d7        2.59986  -0.04981   0.00000   0.00000   0.00000   2.59986
    a6        3.11855  -0.19925   0.00000   0.00000   0.00000   3.11855
    t5       -2.09440   0.00004   0.00000   0.00000   0.00000  -2.09440
         Item               Value     Threshold  Converged?
 Maximum Force            0.000000     0.000450     YES
 RMS     Force            0.000000     0.000300     YES
 Maximum Displacement     0.000000     0.001800     YES
 RMS     Displacement     0.000000     0.001200     YES
 Predicted change in Energy=-0.000000D+00
 Optimization completed.
    -- Stationary point found.
                       ----------------------------
                       !   Optimized Parameters   !
                       ! (Angstroms and Degrees)  !
 ----------------------                            ----------------------
 !      Name          Value   Derivative information (Atomic Units)     !
 ------------------------------------------------------------------------
 !       d1          1.5348   -DE/DX =   -0.0193                        !
 !       a1        178.568    -DE/DX =   -0.1685                        !
 !       t1        119.6763   -DE/DX =   -0.1278                        !
 !       d2          1.2078   -DE/DX =   -0.034                         !
 !       a2        109.6699   -DE/DX =   -0.1179                        !
 !       t2       -178.6745   -DE/DX =    0.1297                        !
 !       d3          1.0125   -DE/DX =    0.0918                        !
 !       d4          1.146    -DE/DX =    0.0117                        !
 !       a3        108.6413   -DE/DX =   -0.0871                        !
 !       d5          1.0857   -DE/DX =    0.0078                        !
 !       a4        108.7092   -DE/DX =   -0.0596                        !
 !       t3        179.9977   -DE/DX =   -0.0011                        !
 !       d6          1.1016   -DE/DX =    0.0008                        !
 !       a5        108.71     -DE/DX =   -0.0542                        !
 !       t4        120.0576   -DE/DX =   -0.0415                        !
 !       d7          1.3758   -DE/DX =   -0.0498                        !
 !       a6        178.68     -DE/DX =   -0.1993                        !
 !       t5       -120.0      -DE/DX =    0.0                           !
 ------------------------------------------------------------------------
 GradGradGradGradGradGradGradGradGradGradGradGradGradGradGradGradGradGrad

 Leave Link  103 at Wed May 26 19:09:55 2021, MaxMem=   13107200 cpu:       0.0
 (Enter /programs/64bit/g09/g09-gfortran/bin/l9999.exe)
 1\1\GINC-MOLMOD\Force\RB3LYP\6-31+G(d,p)\C2H6\OSPITE\26-May-2021\1\\#p
  b3lyp/6-31+g(d,p) force nosym\\c2h6 molecule\\0,1\C\C,1,d1\H,1,d2,2,a
 1\H,1,d3,2,a2,3,t1,0\H,1,d4,2,a3,3,t2,0\H,2,d5,1,a4,3,t3,0\H,2,d6,1,a5
 ,6,t4,0\H,2,d7,1,a6,6,t5,0\\d1=1.5348091\a1=178.56802512\t1=119.676326
 56\d2=1.20779009\a2=109.66987814\t2=-178.6744983\d3=1.0125063\d4=1.145
 95952\a3=108.64131312\d5=1.08567501\a4=108.70922039\t3=179.99768698\d6
 =1.10161117\a5=108.70996015\t4=120.05763209\d7=1.37578429\a6=178.68003
 646\t5=-119.99999826\\Version=EM64L-G09RevA.02\HF=-79.5229007\RMSD=5.5
 05e-09\RMSF=5.144e-02\Dipole=-0.4961463,-0.5283392,0.0555007\Quadrupol
 e=-0.482033,-1.7541003,2.2361334,0.0713883,-0.2429778,-0.8840468\PG=C0
 1 [X(C2H6)]\\@


 QED = W**5 (WHICH WAS WHAT WE WANTED)
 Job cpu time:  0 days  0 hours  0 minutes  9.9 seconds.
 File lengths (MBytes):  RWF=      5 Int=      0 D2E=      0 Chk=      1 Scr=      1
 Normal termination of Gaussian 09 at Wed May 26 19:09:55 2021.
