 Entering Gaussian System, Link 0=g09
 Input=c2h6_011.com
 Output=c2h6_011.log
 Initial command:
 /programs/64bit/g09/g09-gfortran/bin/l1.exe /data/scratch/Gau-6102.inp -scrdir=/data/scratch/
 Entering Link 1 = /programs/64bit/g09/g09-gfortran/bin/l1.exe PID=      6103.
  
 Copyright (c) 1988,1990,1992,1993,1995,1998,2003,2009, Gaussian, Inc.
                  All Rights Reserved.
  
 This is part of the Gaussian(R) 09 program.  It is based on
 the Gaussian(R) 03 system (copyright 2003, Gaussian, Inc.),
 the Gaussian(R) 98 system (copyright 1998, Gaussian, Inc.),
 the Gaussian(R) 94 system (copyright 1995, Gaussian, Inc.),
 the Gaussian 92(TM) system (copyright 1992, Gaussian, Inc.),
 the Gaussian 90(TM) system (copyright 1990, Gaussian, Inc.),
 the Gaussian 88(TM) system (copyright 1988, Gaussian, Inc.),
 the Gaussian 86(TM) system (copyright 1986, Carnegie Mellon
 University), and the Gaussian 82(TM) system (copyright 1983,
 Carnegie Mellon University). Gaussian is a federally registered
 trademark of Gaussian, Inc.
  
 This software contains proprietary and confidential information,
 including trade secrets, belonging to Gaussian, Inc.
  
 This software is provided under written license and may be
 used, copied, transmitted, or stored only in accord with that
 written license.
  
 The following legend is applicable only to US Government
 contracts under FAR:
  
                    RESTRICTED RIGHTS LEGEND
  
 Use, reproduction and disclosure by the US Government is
 subject to restrictions as set forth in subparagraphs (a)
 and (c) of the Commercial Computer Software - Restricted
 Rights clause in FAR 52.227-19.
  
 Gaussian, Inc.
 340 Quinnipiac St., Bldg. 40, Wallingford CT 06492
  
  
 ---------------------------------------------------------------
 Warning -- This program may not be used in any manner that
 competes with the business of Gaussian, Inc. or will provide
 assistance to any competitor of Gaussian, Inc.  The licensee
 of this program is prohibited from giving any competitor of
 Gaussian, Inc. access to this program.  By using this program,
 the user acknowledges that Gaussian, Inc. is engaged in the
 business of creating and licensing software in the field of
 computational chemistry and represents and warrants to the
 licensee that it is not a competitor of Gaussian, Inc. and that
 it will not use this program in any manner prohibited above.
 ---------------------------------------------------------------
  

 Cite this work as:
 Gaussian 09, Revision A.02,
 M. J. Frisch, G. W. Trucks, H. B. Schlegel, G. E. Scuseria, 
 M. A. Robb, J. R. Cheeseman, G. Scalmani, V. Barone, B. Mennucci, 
 G. A. Petersson, H. Nakatsuji, M. Caricato, X. Li, H. P. Hratchian, 
 A. F. Izmaylov, J. Bloino, G. Zheng, J. L. Sonnenberg, M. Hada, 
 M. Ehara, K. Toyota, R. Fukuda, J. Hasegawa, M. Ishida, T. Nakajima, 
 Y. Honda, O. Kitao, H. Nakai, T. Vreven, J. A. Montgomery, Jr., 
 J. E. Peralta, F. Ogliaro, M. Bearpark, J. J. Heyd, E. Brothers, 
 K. N. Kudin, V. N. Staroverov, R. Kobayashi, J. Normand, 
 K. Raghavachari, A. Rendell, J. C. Burant, S. S. Iyengar, J. Tomasi, 
 M. Cossi, N. Rega, J. M. Millam, M. Klene, J. E. Knox, J. B. Cross, 
 V. Bakken, C. Adamo, J. Jaramillo, R. Gomperts, R. E. Stratmann, 
 O. Yazyev, A. J. Austin, R. Cammi, C. Pomelli, J. W. Ochterski, 
 R. L. Martin, K. Morokuma, V. G. Zakrzewski, G. A. Voth, 
 P. Salvador, J. J. Dannenberg, S. Dapprich, A. D. Daniels, 
 O. Farkas, J. B. Foresman, J. V. Ortiz, J. Cioslowski, 
 and D. J. Fox, Gaussian, Inc., Wallingford CT, 2009.
 
 ******************************************
 Gaussian 09:  EM64L-G09RevA.02 11-Jun-2009
                26-May-2021 
 ******************************************
 %chk=c2h6_011.chk
 %mem=100MB
 --------------------------------
 #p b3lyp/6-31+g(d,p) force nosym
 --------------------------------
 1/10=7,30=1,38=1/1,3;
 2/12=2,15=1,17=6,18=5,40=1/2;
 3/5=1,6=6,7=111,11=2,16=1,25=1,30=1,71=1,74=-5/1,2,3;
 4//1;
 5/5=2,38=5/2;
 6/7=2,8=2,9=2,10=2,28=1/1;
 7/29=1,30=1/1,2,3,16;
 1/10=7,30=1/3;
 99//99;
 Leave Link    1 at Wed May 26 19:09:34 2021, MaxMem=   13107200 cpu:       0.0
 (Enter /programs/64bit/g09/g09-gfortran/bin/l101.exe)
 -------------
 c2h6 molecule
 -------------
 Symbolic Z-matrix:
 Charge =  0 Multiplicity = 1
 C1
 C2                   1    d1
 H3                   1    d2       2    a1
 H4                   1    d3       2    a2       3    t1       0
 H5                   1    d4       2    a3       3    t2       0
 H6                   2    d5       1    a4       3    t3       0
 H7                   2    d6       1    a5       6    t4       0
 H8                   2    d7       1    a6       6    t5       0
       Variables:
       Constants:
  d1                    1.01814                  
  a1                  178.26879                  
  t1                  119.45175                  
  d2                    1.19448                  
  a2                  109.44073                  
  t2                 -178.44881                  
  d3                    1.05003                  
  d4                    1.12684                  
  a3                  108.39161                  
  d5                    1.10042                  
  a4                  108.50698                  
  t3                  179.99607                  
  d6                    1.10669                  
  a5                  108.5084                   
  t4                  120.09755                  
  d7                    1.46601                  
  a6                  178.4586                   
  t5                 -120.                       
 
 NAtoms=      8 NQM=      8 NQMF=      0 NMic=      0 NMicF=      0 NTot=      8.
                    Isotopes and Nuclear Properties:
 (Nuclear quadrupole moments (NQMom) in fm**2, nuclear magnetic moments (NMagM)
  in nuclear magnetons)

  Atom         1           2           3           4           5           6           7           8
 IAtWgt=          12          12           1           1           1           1           1           1
 AtmWgt=  12.0000000  12.0000000   1.0078250   1.0078250   1.0078250   1.0078250   1.0078250   1.0078250
 NucSpn=           0           0           1           1           1           1           1           1
 AtZEff=   0.0000000   0.0000000   0.0000000   0.0000000   0.0000000   0.0000000   0.0000000   0.0000000
 NQMom=    0.0000000   0.0000000   0.0000000   0.0000000   0.0000000   0.0000000   0.0000000   0.0000000
 NMagM=    0.0000000   0.0000000   2.7928460   2.7928460   2.7928460   2.7928460   2.7928460   2.7928460
 Leave Link  101 at Wed May 26 19:09:34 2021, MaxMem=   13107200 cpu:       0.0
 (Enter /programs/64bit/g09/g09-gfortran/bin/l103.exe)

 GradGradGradGradGradGradGradGradGradGradGradGradGradGradGradGradGradGrad
 Berny optimization.
 Initialization pass.
                       ----------------------------
                       !    Initial Parameters    !
                       ! (Angstroms and Degrees)  !
 ----------------------                            ----------------------
 !      Name          Value   Derivative information (Atomic Units)     !
 ------------------------------------------------------------------------
 !       d1          1.0181   Frozen                                    !
 !       a1        178.2688   Frozen                                    !
 !       t1        119.4517   Frozen                                    !
 !       d2          1.1945   Frozen                                    !
 !       a2        109.4407   Frozen                                    !
 !       t2       -178.4488   Frozen                                    !
 !       d3          1.05     Frozen                                    !
 !       d4          1.1268   Frozen                                    !
 !       a3        108.3916   Frozen                                    !
 !       d5          1.1004   Frozen                                    !
 !       a4        108.507    Frozen                                    !
 !       t3        179.9961   Frozen                                    !
 !       d6          1.1067   Frozen                                    !
 !       a5        108.5084   Frozen                                    !
 !       t4        120.0976   Frozen                                    !
 !       d7          1.466    Frozen                                    !
 !       a6        178.4586   Frozen                                    !
 !       t5       -120.0      Frozen                                    !
 ------------------------------------------------------------------------
 Trust Radius=3.00D-01 FncErr=1.00D-07 GrdErr=1.00D-07
 Number of steps in this run=   2 maximum allowed number of steps=   2.
 GradGradGradGradGradGradGradGradGradGradGradGradGradGradGradGradGradGrad

 Leave Link  103 at Wed May 26 19:09:34 2021, MaxMem=   13107200 cpu:       0.0
 (Enter /programs/64bit/g09/g09-gfortran/bin/l202.exe)
                          Input orientation:                          
 ---------------------------------------------------------------------
 Center     Atomic      Atomic             Coordinates (Angstroms)
 Number     Number       Type             X           Y           Z
 ---------------------------------------------------------------------
      1          6           0        0.000000    0.000000    0.000000
      2          6           0        0.000000    0.000000    1.018138
      3          1           0        0.036086    0.000000   -1.193936
      4          1           0       -0.486852   -0.862201   -0.349481
      5          1           0       -1.068893    0.028946   -0.355530
      6          1           0       -1.043511    0.000072    1.367433
      7          1           0        0.526209   -0.907991    1.369450
      8          1           0        0.019720    0.034150    2.483620
 ---------------------------------------------------------------------
                    Distance matrix (angstroms):
                    1          2          3          4          5
     1  C    0.000000
     2  C    1.018138   0.000000
     3  H    1.194481   2.212368   0.000000
     4  H    1.050025   1.688431   1.315279   0.000000
     5  H    1.126841   1.740785   1.387351   1.064401   0.000000
     6  H    1.720113   1.100419   2.779594   2.000295   1.723392
     7  H    1.725322   1.106690   2.763262   1.995774   2.529378
     8  H    2.483933   1.466012   3.677751   3.014386   3.040702
                    6          7          8
     6  H    0.000000
     7  H    1.813450   0.000000
     8  H    1.541912   1.544518   0.000000
 Symmetry turned off by external request.
 Stoichiometry    C2H6
 Framework group  C1[X(C2H6)]
 Deg. of freedom    18
 Full point group                 C1      NOp   1
 Rotational constants (GHZ):    124.6521452     28.7792950     26.9922316
 Leave Link  202 at Wed May 26 19:09:34 2021, MaxMem=   13107200 cpu:       0.0
 (Enter /programs/64bit/g09/g09-gfortran/bin/l301.exe)
 Standard basis: 6-31+G(d,p) (6D, 7F)
 Ernie: Thresh=  0.10000D-02 Tol=  0.10000D-05 Strict=F.
 Integral buffers will be    131072 words long.
 Raffenetti 2 integral format.
 Two-electron integral symmetry is turned off.
    68 basis functions,   106 primitive gaussians,    68 cartesian basis functions
     9 alpha electrons        9 beta electrons
       nuclear repulsion energy        49.4144188838 Hartrees.
 IExCor=  402 DFT=T Ex+Corr=B3LYP ExCW=0 ScaHFX=  0.200000
 ScaDFX=  0.800000  0.720000  1.000000  0.810000 ScalE2=  1.000000  1.000000
 IRadAn=      0 IRanWt=     -1 IRanGd=            0 ICorTp=0
 NAtoms=    8 NActive=    8 NUniq=    8 SFac= 7.50D-01 NAtFMM=   80 NAOKFM=F Big=F
 Leave Link  301 at Wed May 26 19:09:34 2021, MaxMem=   13107200 cpu:       0.0
 (Enter /programs/64bit/g09/g09-gfortran/bin/l302.exe)
 NPDir=0 NMtPBC=     1 NCelOv=     1 NCel=       1 NClECP=     1 NCelD=      1
         NCelK=      1 NCelE2=     1 NClLst=     1 CellRange=     0.0.
 One-electron integrals computed using PRISM.
 NBasis=    68 RedAO= T  NBF=    68
 NBsUse=    68 1.00D-06 NBFU=    68
 Precomputing XC quadrature grid using
 IXCGrd= 2 IRadAn=           0 IRanWt=          -1 IRanGd=           0 AccXCQ= 1.00D-10.
 NRdTot=     510 NPtTot=       64808 NUsed=       68495 NTot=       68527
 NSgBfM=    68    68    68    68    68 NAtAll=     8     8.
 Leave Link  302 at Wed May 26 19:09:34 2021, MaxMem=   13107200 cpu:       0.1
 (Enter /programs/64bit/g09/g09-gfortran/bin/l303.exe)
 DipDrv:  MaxL=1.
 Leave Link  303 at Wed May 26 19:09:34 2021, MaxMem=   13107200 cpu:       0.0
 (Enter /programs/64bit/g09/g09-gfortran/bin/l401.exe)
 Harris functional with IExCor=  402 diagonalized for initial guess.
 ExpMin= 4.38D-02 ExpMax= 3.05D+03 ExpMxC= 4.57D+02 IAcc=2 IRadAn=         0 AccDes= 0.00D+00
 HarFok:  IExCor=  402 AccDes= 0.00D+00 IRadAn=         0 IDoV= 1
 ScaDFX=  1.000000  1.000000  1.000000  1.000000
 FoFCou: FMM=F IPFlag=           0 FMFlag=      100000 FMFlg1=           0
         NFxFlg=           0 DoJE=T BraDBF=F KetDBF=T FulRan=T
         Omega=  0.000000  0.000000  1.000000  0.000000  0.000000 ICntrl=     500 IOpCl=  0
         NMat0=    1 NMatS0=    1 NMatT0=    0 NMatD0=    1 NMtDS0=    0 NMtDT0=    0
         I1Cent=           4 NGrid=           0.
 Symmetry not used in FoFCou.
 Harris En= -79.3591039621485    
 Leave Link  401 at Wed May 26 19:09:35 2021, MaxMem=   13107200 cpu:       0.8
 (Enter /programs/64bit/g09/g09-gfortran/bin/l502.exe)
 Closed shell SCF:
 Requested convergence on RMS density matrix=1.00D-08 within 128 cycles.
 Requested convergence on MAX density matrix=1.00D-06.
 Requested convergence on             energy=1.00D-06.
 No special actions if energy rises.
 Using DIIS extrapolation, IDIIS=  1040.
 Two-electron integral symmetry not used.
        68410 words used for storage of precomputed grid.
 Keep R1 ints in memory in canonical form, NReq=3742795.
 IEnd=      101260 IEndB=      101260 NGot=    13107200 MDV=    10274214
 LenX=    10274214 LenY=    10269149
 Symmetry not used in FoFDir.
 MinBra= 0 MaxBra= 2 Meth= 1.
 IRaf=       0 NMat=   1 IRICut=       1 DoRegI=T DoRafI=F ISym2E= 0 JSym2E=0.

 Cycle   1  Pass 1  IDiag  1:
 E= -78.7215222011146    
 DIIS: error= 6.56D-02 at cycle   1 NSaved=   1.
 NSaved= 1 IEnMin= 1 EnMin= -78.7215222011146     IErMin= 1 ErrMin= 6.56D-02
 ErrMax= 6.56D-02 EMaxC= 1.00D-01 BMatC= 4.49D-01 BMatP= 4.49D-01
 IDIUse=3 WtCom= 3.44D-01 WtEn= 6.56D-01
 Coeff-Com:  0.100D+01
 Coeff-En:   0.100D+01
 Coeff:      0.100D+01
 Gap=    -0.020 Goal=   None    Shift=    0.000
 GapD=   -0.020 DampG=0.250 DampE=0.500 DampFc=0.2500 IDamp=-1.
 Damping current iteration by 2.50D-01
 RMSDP=2.80D+00 MaxDP=9.07D+01              OVMax= 5.23D-01

 Cycle   2  Pass 1  IDiag  1:
 E= -78.8962629605261     Delta-E=       -0.174740759412 Rises=F Damp=T
 DIIS: error= 2.01D-02 at cycle   2 NSaved=   2.
 NSaved= 2 IEnMin= 2 EnMin= -78.8962629605261     IErMin= 2 ErrMin= 2.01D-02
 ErrMax= 2.01D-02 EMaxC= 1.00D-01 BMatC= 5.05D-02 BMatP= 4.49D-01
 IDIUse=3 WtCom= 7.99D-01 WtEn= 2.01D-01
 Coeff-Com: -0.465D+00 0.147D+01
 Coeff-En:   0.000D+00 0.100D+01
 Coeff:     -0.372D+00 0.137D+01
 Gap=     0.198 Goal=   None    Shift=    0.000
 RMSDP=5.20D-01 MaxDP=1.69D+01 DE=-1.75D-01 OVMax= 3.52D-01

 Cycle   3  Pass 1  IDiag  1:
 E= -79.1734663919830     Delta-E=       -0.277203431457 Rises=F Damp=F
 DIIS: error= 4.75D-03 at cycle   3 NSaved=   3.
 NSaved= 3 IEnMin= 3 EnMin= -79.1734663919830     IErMin= 3 ErrMin= 4.75D-03
 ErrMax= 4.75D-03 EMaxC= 1.00D-01 BMatC= 2.17D-03 BMatP= 5.05D-02
 IDIUse=3 WtCom= 9.53D-01 WtEn= 4.75D-02
 Coeff-Com:  0.440D-01 0.273D-01 0.929D+00
 Coeff-En:   0.000D+00 0.000D+00 0.100D+01
 Coeff:      0.419D-01 0.260D-01 0.932D+00
 Gap=     0.143 Goal=   None    Shift=    0.000
 RMSDP=2.38D-02 MaxDP=7.36D-01 DE=-2.77D-01 OVMax= 6.16D-02

 Cycle   4  Pass 1  IDiag  1:
 E= -79.1747196104996     Delta-E=       -0.001253218517 Rises=F Damp=F
 DIIS: error= 2.77D-03 at cycle   4 NSaved=   4.
 NSaved= 4 IEnMin= 4 EnMin= -79.1747196104996     IErMin= 4 ErrMin= 2.77D-03
 ErrMax= 2.77D-03 EMaxC= 1.00D-01 BMatC= 6.57D-04 BMatP= 2.17D-03
 IDIUse=3 WtCom= 9.72D-01 WtEn= 2.77D-02
 Coeff-Com:  0.469D-01-0.726D-01 0.491D+00 0.534D+00
 Coeff-En:   0.000D+00 0.000D+00 0.338D+00 0.662D+00
 Coeff:      0.456D-01-0.706D-01 0.487D+00 0.538D+00
 Gap=     0.142 Goal=   None    Shift=    0.000
 RMSDP=1.27D-02 MaxDP=3.92D-01 DE=-1.25D-03 OVMax= 3.82D-02

 Cycle   5  Pass 1  IDiag  1:
 E= -79.1759369482688     Delta-E=       -0.001217337769 Rises=F Damp=F
 DIIS: error= 8.23D-04 at cycle   5 NSaved=   5.
 NSaved= 5 IEnMin= 5 EnMin= -79.1759369482688     IErMin= 5 ErrMin= 8.23D-04
 ErrMax= 8.23D-04 EMaxC= 1.00D-01 BMatC= 5.00D-05 BMatP= 6.57D-04
 IDIUse=3 WtCom= 9.92D-01 WtEn= 8.23D-03
 Coeff-Com:  0.216D-01-0.377D-01 0.969D-01 0.200D+00 0.720D+00
 Coeff-En:   0.000D+00 0.000D+00 0.000D+00 0.000D+00 0.100D+01
 Coeff:      0.215D-01-0.374D-01 0.961D-01 0.198D+00 0.722D+00
 Gap=     0.142 Goal=   None    Shift=    0.000
 RMSDP=6.75D-03 MaxDP=2.14D-01 DE=-1.22D-03 OVMax= 6.28D-03

 Cycle   6  Pass 1  IDiag  1:
 E= -79.1760116118273     Delta-E=       -0.000074663559 Rises=F Damp=F
 DIIS: error= 1.18D-04 at cycle   6 NSaved=   6.
 NSaved= 6 IEnMin= 6 EnMin= -79.1760116118273     IErMin= 6 ErrMin= 1.18D-04
 ErrMax= 1.18D-04 EMaxC= 1.00D-01 BMatC= 1.71D-06 BMatP= 5.00D-05
 IDIUse=3 WtCom= 9.99D-01 WtEn= 1.18D-03
 Coeff-Com:  0.712D-02-0.105D-01 0.252D-01 0.605D-01 0.271D+00 0.646D+00
 Coeff-En:   0.000D+00 0.000D+00 0.000D+00 0.000D+00 0.000D+00 0.100D+01
 Coeff:      0.712D-02-0.105D-01 0.251D-01 0.604D-01 0.271D+00 0.647D+00
 Gap=     0.142 Goal=   None    Shift=    0.000
 RMSDP=2.22D-04 MaxDP=6.65D-03 DE=-7.47D-05 OVMax= 4.36D-04

 Cycle   7  Pass 1  IDiag  1:
 E= -79.1760131631539     Delta-E=       -0.000001551327 Rises=F Damp=F
 DIIS: error= 2.63D-05 at cycle   7 NSaved=   7.
 NSaved= 7 IEnMin= 7 EnMin= -79.1760131631539     IErMin= 7 ErrMin= 2.63D-05
 ErrMax= 2.63D-05 EMaxC= 1.00D-01 BMatC= 8.34D-08 BMatP= 1.71D-06
 IDIUse=1 WtCom= 1.00D+00 WtEn= 0.00D+00
 Coeff-Com:  0.101D-02-0.106D-02 0.429D-02 0.585D-02 0.138D-01 0.159D+00
 Coeff-Com:  0.817D+00
 Coeff:      0.101D-02-0.106D-02 0.429D-02 0.585D-02 0.138D-01 0.159D+00
 Coeff:      0.817D+00
 Gap=     0.142 Goal=   None    Shift=    0.000
 RMSDP=7.56D-05 MaxDP=2.34D-03 DE=-1.55D-06 OVMax= 1.26D-04

 Cycle   8  Pass 1  IDiag  1:
 E= -79.1760132369160     Delta-E=       -0.000000073762 Rises=F Damp=F
 DIIS: error= 8.37D-06 at cycle   8 NSaved=   8.
 NSaved= 8 IEnMin= 8 EnMin= -79.1760132369160     IErMin= 8 ErrMin= 8.37D-06
 ErrMax= 8.37D-06 EMaxC= 1.00D-01 BMatC= 7.64D-09 BMatP= 8.34D-08
 IDIUse=1 WtCom= 1.00D+00 WtEn= 0.00D+00
 Coeff-Com:  0.187D-03-0.280D-03 0.537D-03 0.394D-03-0.760D-02 0.763D-02
 Coeff-Com:  0.214D+00 0.785D+00
 Coeff:      0.187D-03-0.280D-03 0.537D-03 0.394D-03-0.760D-02 0.763D-02
 Coeff:      0.214D+00 0.785D+00
 Gap=     0.142 Goal=   None    Shift=    0.000
 RMSDP=2.70D-05 MaxDP=8.28D-04 DE=-7.38D-08 OVMax= 5.34D-05

 Cycle   9  Pass 1  IDiag  1:
 E= -79.1760132475451     Delta-E=       -0.000000010629 Rises=F Damp=F
 DIIS: error= 2.25D-06 at cycle   9 NSaved=   9.
 NSaved= 9 IEnMin= 9 EnMin= -79.1760132475451     IErMin= 9 ErrMin= 2.25D-06
 ErrMax= 2.25D-06 EMaxC= 1.00D-01 BMatC= 3.49D-10 BMatP= 7.64D-09
 IDIUse=1 WtCom= 1.00D+00 WtEn= 0.00D+00
 Coeff-Com: -0.259D-04 0.437D-04-0.204D-03-0.362D-03-0.395D-02-0.938D-02
 Coeff-Com:  0.184D-01 0.219D+00 0.777D+00
 Coeff:     -0.259D-04 0.437D-04-0.204D-03-0.362D-03-0.395D-02-0.938D-02
 Coeff:      0.184D-01 0.219D+00 0.777D+00
 Gap=     0.142 Goal=   None    Shift=    0.000
 RMSDP=1.02D-05 MaxDP=3.20D-04 DE=-1.06D-08 OVMax= 1.46D-05

 Cycle  10  Pass 1  IDiag  1:
 E= -79.1760132480334     Delta-E=       -0.000000000488 Rises=F Damp=F
 DIIS: error= 3.23D-07 at cycle  10 NSaved=  10.
 NSaved=10 IEnMin=10 EnMin= -79.1760132480334     IErMin=10 ErrMin= 3.23D-07
 ErrMax= 3.23D-07 EMaxC= 1.00D-01 BMatC= 6.80D-12 BMatP= 3.49D-10
 IDIUse=1 WtCom= 1.00D+00 WtEn= 0.00D+00
 Coeff-Com: -0.104D-04 0.152D-04-0.418D-04 0.416D-04 0.515D-03-0.795D-03
 Coeff-Com: -0.962D-02-0.445D-01 0.223D-01 0.103D+01
 Coeff:     -0.104D-04 0.152D-04-0.418D-04 0.416D-04 0.515D-03-0.795D-03
 Coeff:     -0.962D-02-0.445D-01 0.223D-01 0.103D+01
 Gap=     0.142 Goal=   None    Shift=    0.000
 RMSDP=3.38D-06 MaxDP=1.09D-04 DE=-4.88D-10 OVMax= 4.52D-06

 Cycle  11  Pass 1  IDiag  1:
 E= -79.1760132480522     Delta-E=       -0.000000000019 Rises=F Damp=F
 DIIS: error= 7.35D-08 at cycle  11 NSaved=  11.
 NSaved=11 IEnMin=11 EnMin= -79.1760132480522     IErMin=11 ErrMin= 7.35D-08
 ErrMax= 7.35D-08 EMaxC= 1.00D-01 BMatC= 4.05D-13 BMatP= 6.80D-12
 IDIUse=1 WtCom= 1.00D+00 WtEn= 0.00D+00
 Coeff-Com: -0.887D-06-0.246D-06-0.342D-05 0.346D-04 0.286D-03 0.180D-03
 Coeff-Com: -0.268D-02-0.178D-01-0.162D-01 0.262D+00 0.774D+00
 Coeff:     -0.887D-06-0.246D-06-0.342D-05 0.346D-04 0.286D-03 0.180D-03
 Coeff:     -0.268D-02-0.178D-01-0.162D-01 0.262D+00 0.774D+00
 Gap=     0.142 Goal=   None    Shift=    0.000
 RMSDP=2.27D-07 MaxDP=7.15D-06 DE=-1.88D-11 OVMax= 4.90D-07

 Cycle  12  Pass 1  IDiag  1:
 E= -79.1760132480529     Delta-E=       -0.000000000001 Rises=F Damp=F
 DIIS: error= 1.27D-08 at cycle  12 NSaved=  12.
 NSaved=12 IEnMin=12 EnMin= -79.1760132480529     IErMin=12 ErrMin= 1.27D-08
 ErrMax= 1.27D-08 EMaxC= 1.00D-01 BMatC= 1.14D-14 BMatP= 4.05D-13
 IDIUse=1 WtCom= 1.00D+00 WtEn= 0.00D+00
 Coeff-Com: -0.242D-07-0.308D-07 0.101D-06-0.186D-05-0.161D-04 0.617D-04
 Coeff-Com:  0.298D-03 0.804D-03-0.434D-02-0.422D-01 0.118D+00 0.927D+00
 Coeff:     -0.242D-07-0.308D-07 0.101D-06-0.186D-05-0.161D-04 0.617D-04
 Coeff:      0.298D-03 0.804D-03-0.434D-02-0.422D-01 0.118D+00 0.927D+00
 Gap=     0.142 Goal=   None    Shift=    0.000
 RMSDP=6.01D-08 MaxDP=1.83D-06 DE=-6.82D-13 OVMax= 1.44D-07

 Cycle  13  Pass 1  IDiag  1:
 E= -79.1760132480527     Delta-E=        0.000000000000 Rises=F Damp=F
 DIIS: error= 8.69D-10 at cycle  13 NSaved=  13.
 NSaved=13 IEnMin=12 EnMin= -79.1760132480529     IErMin=13 ErrMin= 8.69D-10
 ErrMax= 8.69D-10 EMaxC= 1.00D-01 BMatC= 1.00D-16 BMatP= 1.14D-14
 IDIUse=1 WtCom= 1.00D+00 WtEn= 0.00D+00
 Coeff-Com:  0.786D-08-0.525D-08 0.931D-07-0.222D-06-0.214D-05 0.253D-05
 Coeff-Com:  0.283D-04 0.183D-03-0.584D-04-0.232D-02 0.487D-03 0.428D-01
 Coeff-Com:  0.959D+00
 Coeff:      0.786D-08-0.525D-08 0.931D-07-0.222D-06-0.214D-05 0.253D-05
 Coeff:      0.283D-04 0.183D-03-0.584D-04-0.232D-02 0.487D-03 0.428D-01
 Coeff:      0.959D+00
 Gap=     0.142 Goal=   None    Shift=    0.000
 RMSDP=2.01D-09 MaxDP=6.60D-08 DE= 1.71D-13 OVMax= 1.50D-08

 SCF Done:  E(RB3LYP) =  -79.1760132481     A.U. after   13 cycles
             Convg  =    0.2008D-08             -V/T =  1.9813
 KE= 8.068875067829D+01 PE=-2.822803243974D+02 EE= 7.300114158735D+01
 Leave Link  502 at Wed May 26 19:09:44 2021, MaxMem=   13107200 cpu:       8.5
 (Enter /programs/64bit/g09/g09-gfortran/bin/l601.exe)
 Copying SCF densities to generalized density rwf, IOpCl= 0 IROHF=0.

 **********************************************************************

            Population analysis using the SCF density.

 **********************************************************************

 Alpha  occ. eigenvalues --  -10.20905 -10.19694  -0.92373  -0.67188  -0.54417
 Alpha  occ. eigenvalues --   -0.51823  -0.44044  -0.24732  -0.18708
 Alpha virt. eigenvalues --   -0.04510  -0.01411   0.00315   0.02700   0.05272
 Alpha virt. eigenvalues --    0.08794   0.09329   0.10092   0.12208   0.15060
 Alpha virt. eigenvalues --    0.17633   0.21573   0.22930   0.31068   0.54824
 Alpha virt. eigenvalues --    0.58000   0.59333   0.65280   0.69536   0.74040
 Alpha virt. eigenvalues --    0.82433   0.86300   0.91185   0.94946   0.96128
 Alpha virt. eigenvalues --    1.09452   1.12055   1.21478   1.31387   1.39179
 Alpha virt. eigenvalues --    1.49913   1.68562   1.79875   1.85314   1.91991
 Alpha virt. eigenvalues --    2.01981   2.06527   2.13411   2.19053   2.23181
 Alpha virt. eigenvalues --    2.25765   2.35970   2.41817   2.52271   2.56455
 Alpha virt. eigenvalues --    2.59587   2.73588   2.85601   2.98255   3.05084
 Alpha virt. eigenvalues --    3.05880   3.15948   3.27161   3.28561   3.50507
 Alpha virt. eigenvalues --    3.56131   4.20143   4.57602   5.19533
          Condensed to atoms (all electrons):
              1          2          3          4          5          6
     1  C   18.721848 -13.501004  -0.289628   1.810437   0.218264  -0.686875
     2  C  -13.501004  19.270913   0.689814  -1.647991   0.001393   1.060823
     3  H   -0.289628   0.689814   0.636820  -0.142214  -0.089631   0.017541
     4  H    1.810437  -1.647991  -0.142214   1.088985  -0.104330  -0.029773
     5  H    0.218264   0.001393  -0.089631  -0.104330   0.988678  -0.112172
     6  H   -0.686875   1.060823   0.017541  -0.029773  -0.112172   0.702107
     7  H   -1.016042   1.330948   0.006409  -0.108292   0.037606  -0.041824
     8  H    1.062381  -0.785919  -0.002387   0.023404  -0.001384  -0.063344
              7          8
     1  C   -1.016042   1.062381
     2  C    1.330948  -0.785919
     3  H    0.006409  -0.002387
     4  H   -0.108292   0.023404
     5  H    0.037606  -0.001384
     6  H   -0.041824  -0.063344
     7  H    0.786081  -0.107500
     8  H   -0.107500   0.747147
 Mulliken atomic charges:
              1
     1  C   -0.319381
     2  C   -0.418976
     3  H    0.173275
     4  H    0.109775
     5  H    0.061575
     6  H    0.153516
     7  H    0.112614
     8  H    0.127602
 Sum of Mulliken atomic charges =  -0.00000
 Mulliken charges with hydrogens summed into heavy atoms:
              1
     1  C    0.025244
     2  C   -0.025244
 Sum of Mulliken charges with hydrogens summed into heavy atoms =  -0.00000
 Electronic spatial extent (au):  <R**2>=            116.8769
 Charge=             -0.0000 electrons
 Dipole moment (field-independent basis, Debye):
    X=             -1.3710    Y=             -1.3661    Z=             -0.8864  Tot=              2.1288
 Quadrupole moment (field-independent basis, Debye-Ang):
   XX=            -15.7345   YY=            -17.0691   ZZ=            -18.1328
   XY=              0.3742   XZ=             -0.6452   YZ=             -1.0829
 Traceless Quadrupole moment (field-independent basis, Debye-Ang):
   XX=              1.2443   YY=             -0.0903   ZZ=             -1.1540
   XY=              0.3742   XZ=             -0.6452   YZ=             -1.0829
 Octapole moment (field-independent basis, Debye-Ang**2):
  XXX=              3.0286  YYY=              2.1845  ZZZ=            -35.2101  XYY=              1.2253
  XXY=              0.2216  XXZ=             -8.7822  XZZ=             -1.8696  YZZ=             -4.1919
  YYZ=            -10.0921  XYZ=             -0.7846
 Hexadecapole moment (field-independent basis, Debye-Ang**3):
 XXXX=            -32.7923 YYYY=            -30.4680 ZZZZ=           -154.5835 XXXY=              1.0666
 XXXZ=             -2.1250 YYYX=              0.6816 YYYZ=             -0.4727 ZZZX=             -5.0674
 ZZZY=            -10.1442 XXYY=            -10.6631 XXZZ=            -30.1297 YYZZ=            -31.6276
 XXYZ=              0.1904 YYXZ=             -0.5547 ZZXY=             -0.3085
 N-N= 4.941441888375D+01 E-N=-2.822803243151D+02  KE= 8.068875067829D+01
 No NMR shielding tensors so no spin-rotation constants.
 Leave Link  601 at Wed May 26 19:09:44 2021, MaxMem=   13107200 cpu:       0.0
 (Enter /programs/64bit/g09/g09-gfortran/bin/l701.exe)
 Compute integral first derivatives.
 ... and contract with generalized density number  0.
 Leave Link  701 at Wed May 26 19:09:44 2021, MaxMem=   13107200 cpu:       0.1
 (Enter /programs/64bit/g09/g09-gfortran/bin/l702.exe)
 L702 exits ... SP integral derivatives will be done elsewhere.
 Leave Link  702 at Wed May 26 19:09:44 2021, MaxMem=   13107200 cpu:       0.0
 (Enter /programs/64bit/g09/g09-gfortran/bin/l703.exe)
 Compute integral first derivatives, UseDBF=F ICtDFT=           0.
 Integral derivatives from FoFDir, PRISM(SPDF).
 Calling FoFJK, ICntrl=      2127 FMM=F ISym2X=0 I1Cent= 0 IOpClX= 0 NMat=1 NMatS=1 NMatT=0.
 FoFCou: FMM=F IPFlag=           0 FMFlag=      100000 FMFlg1=         800
         NFxFlg=           0 DoJE=F BraDBF=F KetDBF=F FulRan=T
         Omega=  0.000000  0.000000  1.000000  0.000000  0.000000 ICntrl=    2127 IOpCl=  0
         NMat0=    1 NMatS0=    1 NMatT0=    0 NMatD0=    1 NMtDS0=    0 NMtDT0=    0
         I1Cent=           0 NGrid=           0.
 Symmetry not used in FoFCou.
 Leave Link  703 at Wed May 26 19:09:45 2021, MaxMem=   13107200 cpu:       1.4
 (Enter /programs/64bit/g09/g09-gfortran/bin/l716.exe)
 Dipole        =-5.39407349D-01-5.37471254D-01-3.48746407D-01
 -------------------------------------------------------------------
 Center     Atomic                   Forces (Hartrees/Bohr)
 Number     Number              X              Y              Z
 -------------------------------------------------------------------
      1        6          -0.096708385    0.036921235   -1.196443701
      2        6           0.010105253   -0.082877445    1.185543997
      3        1           0.078691150    0.045194894    0.028629011
      4        1           0.005656411   -0.094202941   -0.008893625
      5        1          -0.032169705    0.060862398   -0.010534841
      6        1           0.005126545   -0.016077270    0.020618451
      7        1           0.001538979   -0.012662947    0.018060456
      8        1           0.027759751    0.062842076   -0.036979747
 -------------------------------------------------------------------
 Cartesian Forces:  Max     1.196443701 RMS     0.346701990
 -----------------------------------------------------------------------------------------------
                       Internal Coordinate Forces (Hartree/Bohr or radian)
  Cent   Atom   N1       Length/X         N2         Alpha/Y        N3         Beta/Z          J
 -----------------------------------------------------------------------------------------------
      1  C 
      2  C        1   1.187243(     1)
      3  H        1  -0.026239(     2)      2  -0.179496(     8)
      4  H        1   0.077690(     3)      2  -0.035696(     9)      3  -0.095884(    14)     0
      5  H        1   0.035403(     4)      2  -0.001425(    10)      3   0.121177(    15)     0
      6  H        2   0.001682(     5)      1   0.044043(    11)      3   0.022302(    16)     0
      7  H        2   0.016854(     6)      1   0.028031(    12)      6  -0.009951(    17)     0
      8  H        2  -0.035129(     7)      1  -0.191909(    13)      6   0.000550(    18)     0
 -----------------------------------------------------------------------------------------------
 Internal  Forces:  Max     1.187243157 RMS     0.290265109
 Force constants in Cartesian coordinates: 
                1             2             3             4             5 
      1  0.593720D+02
      2 -0.705762D+02  0.280242D+03
      3  0.118608D+00  0.849661D-01  0.340621D+01
      4 -0.100507D+03  0.119642D+03  0.552510D-01  0.172287D+03
      5  0.779655D+02 -0.198376D+03  0.338428D-01 -0.132773D+03  0.160205D+03
      6 -0.184101D-01 -0.315712D-01 -0.293603D+01 -0.565563D-01 -0.953477D-01
      7 -0.115580D+00  0.376163D-02 -0.435171D-01  0.444920D-01 -0.424910D-02
      8  0.173606D+02 -0.110151D+03 -0.286519D-01 -0.290707D+02  0.708105D+02
      9  0.408470D-02  0.113694D-03 -0.252041D+00  0.134475D-02 -0.128427D-03
     10  0.348442D+00 -0.437237D+00 -0.600338D-01 -0.894242D+00  0.524438D+00
     11 -0.401173D+00 -0.117728D+00 -0.791545D-01  0.512811D+00 -0.282093D+00
     12 -0.511366D-01 -0.841595D-01 -0.119820D+00 -0.194070D-01 -0.346301D-01
     13 -0.301522D+00  0.146995D-01 -0.703081D-01  0.389384D-01 -0.148410D-01
     14 -0.610119D+00  0.222714D+00 -0.110024D-01  0.981126D+00 -0.536793D+00
     15 -0.715561D-01 -0.920291D-03 -0.983167D-01 -0.371887D-01  0.915751D-03
     16  0.127158D-01 -0.102812D-03  0.000000D+00 -0.310003D+00  0.664310D-02
     17 -0.220615D-01 -0.108634D+01  0.000000D+00 -0.160197D-01  0.470579D+00
     18  0.379927D-01 -0.846122D-04  0.000000D+00  0.787386D-01  0.196808D-01
     19  0.447082D-01  0.968219D+00  0.000000D+00 -0.180368D+00 -0.474883D+00
     20  0.185537D-01  0.573743D+00  0.000000D+00  0.780347D-01 -0.575164D+00
     21 -0.190124D-01  0.326438D-01  0.000000D+00 -0.217343D-01  0.764401D-01
     22  0.411462D+02 -0.496149D+02  0.000000D+00 -0.704785D+02  0.547701D+02
     23 -0.237350D+02  0.286921D+02  0.000000D+00  0.406456D+02 -0.317159D+02
     24 -0.570267D-03 -0.987952D-03  0.000000D+00 -0.447988D-03 -0.773253D-03
                6             7             8             9            10 
      6  0.329055D+01
      7  0.000000D+00  0.774238D-01
      8  0.000000D+00  0.918916D-02  0.460969D+02
      9  0.000000D+00 -0.523796D-02  0.277738D-03  0.250567D+00
     10  0.000000D+00  0.418057D-02 -0.102002D-01  0.126356D-03  0.171185D+00
     11  0.000000D+00 -0.928789D-02 -0.605593D-02 -0.280722D-03  0.106688D+00
     12  0.000000D+00  0.170902D-01  0.291501D-01  0.516544D-03  0.537813D-01
     13  0.000000D+00 -0.105163D-01  0.512652D-03 -0.317851D-03 -0.120274D-02
     14  0.000000D+00  0.586201D-03  0.940111D-02  0.177176D-04  0.308313D-01
     15  0.000000D+00  0.316648D-01 -0.775881D-03  0.957055D-03  0.612616D-02
     16  0.736306D-01  0.000000D+00  0.364080D-04  0.000000D+00  0.115541D-05
     17  0.289804D-01  0.000000D+00  0.530966D+00  0.000000D+00  0.168502D-01
     18 -0.116394D+00  0.000000D+00  0.000000D+00  0.000000D+00  0.000000D+00
     19 -0.110928D-01  0.000000D+00 -0.456796D+00  0.000000D+00 -0.144964D-01
     20  0.766273D-01  0.000000D+00 -0.264728D+00  0.000000D+00 -0.840114D-02
     21 -0.114866D+00  0.000000D+00  0.000000D+00  0.000000D+00  0.000000D+00
     22  0.124287D-01  0.000000D+00  0.121674D+02  0.000000D+00  0.386133D+00
     23  0.213113D-01  0.000000D+00 -0.702597D+01  0.000000D+00 -0.222969D+00
     24 -0.123262D+00  0.000000D+00  0.000000D+00  0.000000D+00  0.000000D+00
               11            12            13            14            15 
     11  0.304645D+00
     12  0.834967D-01  0.117817D+00
     13  0.812025D-03 -0.327837D-03  0.285001D+00
     14 -0.198992D-01  0.614283D-02 -0.735865D-02  0.965343D-01
     15 -0.406144D-02  0.148576D-02  0.709538D-01  0.484186D-02  0.958738D-01
     16  0.000000D+00  0.000000D+00  0.000000D+00 -0.122824D-05  0.000000D+00
     17 -0.951467D-02  0.000000D+00 -0.485068D-03 -0.179124D-01  0.000000D+00
     18  0.000000D+00  0.000000D+00  0.000000D+00  0.000000D+00  0.000000D+00
     19  0.818558D-02  0.000000D+00  0.417310D-03  0.154103D-01  0.000000D+00
     20  0.474380D-02  0.000000D+00  0.241844D-03  0.893074D-02  0.000000D+00
     21  0.000000D+00  0.000000D+00  0.000000D+00  0.000000D+00  0.000000D+00
     22 -0.218034D+00  0.000000D+00 -0.111156D-01 -0.410474D+00  0.000000D+00
     23  0.125902D+00  0.000000D+00  0.641863D-02  0.237025D+00  0.000000D+00
     24  0.000000D+00  0.000000D+00  0.000000D+00  0.000000D+00  0.000000D+00
               16            17            18            19            20 
     16  0.310798D+00
     17 -0.473792D-02  0.942386D-01
     18 -0.763567D-01 -0.141048D-01  0.108247D+00
     19 -0.469319D-02  0.272009D-01 -0.140264D-01  0.150372D+00
     20 -0.171211D-02  0.100757D-01 -0.511695D-02 -0.940269D-01  0.247364D+00
     21  0.260457D-02 -0.147013D-01  0.778409D-02  0.253297D-01 -0.715276D-01
     22 -0.881964D-02 -0.746813D-03 -0.263483D-01  0.405971D-02  0.730999D-02
     23 -0.124784D-03  0.790923D-02 -0.374411D-03  0.669083D-02 -0.496531D-02
     24  0.121586D-03 -0.174260D-03  0.363271D-03 -0.210544D-03  0.173424D-04
               21            22            23            24 
     21  0.106722D+00
     22  0.128124D-01  0.289621D+02
     23 -0.228550D-01 -0.167006D+02  0.968392D+01
     24  0.360185D-03  0.110721D-02  0.191812D-02  0.122539D+00
 Force constants in internal coordinates: 
                1             2             3             4             5 
      1  0.293603D+01
      2  0.000000D+00  0.250725D+00
      3  0.000000D+00  0.000000D+00  0.398732D+00
      4  0.000000D+00  0.000000D+00  0.000000D+00  0.308801D+00
      5  0.000000D+00  0.000000D+00  0.000000D+00  0.000000D+00  0.336358D+00
      6  0.000000D+00  0.000000D+00  0.000000D+00  0.000000D+00  0.000000D+00
      7  0.000000D+00  0.000000D+00  0.000000D+00  0.000000D+00  0.000000D+00
      8  0.000000D+00  0.000000D+00  0.000000D+00  0.000000D+00  0.000000D+00
      9  0.000000D+00  0.000000D+00  0.000000D+00  0.000000D+00  0.000000D+00
     10  0.000000D+00  0.000000D+00  0.000000D+00  0.000000D+00  0.000000D+00
     11  0.000000D+00  0.000000D+00  0.000000D+00  0.000000D+00  0.000000D+00
     12  0.000000D+00  0.000000D+00  0.000000D+00  0.000000D+00  0.000000D+00
     13  0.000000D+00  0.000000D+00  0.000000D+00  0.000000D+00  0.000000D+00
     14  0.000000D+00  0.000000D+00  0.000000D+00  0.000000D+00  0.000000D+00
     15  0.000000D+00  0.000000D+00  0.000000D+00  0.000000D+00  0.000000D+00
     16  0.000000D+00  0.000000D+00  0.000000D+00  0.000000D+00  0.000000D+00
     17  0.000000D+00  0.000000D+00  0.000000D+00  0.000000D+00  0.000000D+00
     18  0.000000D+00  0.000000D+00  0.000000D+00  0.000000D+00  0.000000D+00
                6             7             8             9            10 
      6  0.329530D+00
      7  0.000000D+00  0.122599D+00
      8  0.000000D+00  0.000000D+00  0.393679D+00
      9  0.000000D+00  0.000000D+00  0.812115D-01  0.326093D+00
     10  0.000000D+00  0.000000D+00  0.160467D+00  0.701571D-02  0.327996D+00
     11  0.000000D+00  0.000000D+00  0.000000D+00  0.000000D+00  0.000000D+00
     12  0.000000D+00  0.000000D+00  0.000000D+00  0.000000D+00  0.000000D+00
     13  0.000000D+00  0.000000D+00  0.000000D+00  0.000000D+00  0.000000D+00
     14  0.000000D+00  0.000000D+00  0.346792D-01  0.227441D-01  0.307840D-01
     15  0.000000D+00  0.000000D+00 -0.137493D-02 -0.260715D-01 -0.306564D-01
     16  0.000000D+00  0.000000D+00  0.000000D+00  0.000000D+00  0.000000D+00
     17  0.000000D+00  0.000000D+00  0.000000D+00  0.000000D+00  0.000000D+00
     18  0.000000D+00  0.000000D+00  0.000000D+00  0.000000D+00  0.000000D+00
               11            12            13            14            15 
     11  0.357567D+00
     12  0.376457D-01  0.357564D+00
     13  0.820435D-01  0.818107D-01  0.308792D+00
     14  0.000000D+00  0.000000D+00  0.000000D+00  0.392454D+00
     15  0.000000D+00  0.000000D+00  0.000000D+00 -0.138300D+00  0.393092D+00
     16  0.779262D-03 -0.778384D-03 -0.389449D-04  0.214202D+00  0.214202D+00
     17 -0.639348D-01 -0.610112D-01 -0.354305D-01  0.714006D-01  0.714006D-01
     18  0.369815D-02 -0.370185D-02  0.258923D-05  0.714006D-01  0.714006D-01
               16            17            18 
     16  0.721010D+00
     17  0.253986D+00  0.366453D+00
     18  0.213040D+00 -0.674813D-03  0.214391D+00
 Leave Link  716 at Wed May 26 19:09:45 2021, MaxMem=   13107200 cpu:       0.0
 (Enter /programs/64bit/g09/g09-gfortran/bin/l103.exe)

 GradGradGradGradGradGradGradGradGradGradGradGradGradGradGradGradGradGrad
 Berny optimization.
 Search for a local minimum.
 Step number   1 out of a maximum of    2
 All quantities printed in internal units (Hartrees-Bohrs-Radians)
 Second derivative matrix not updated -- first step.
 The second derivative matrix:
                          d1        a1        t1        d2        a2
           d1           2.93603
           a1          -0.00000   0.39368
           t1          -0.00000   0.03468   0.39245
           d2           0.00000  -0.00000  -0.00000   0.25073
           a2          -0.00000   0.08121   0.02274  -0.00000   0.32609
           t2           0.00000  -0.00137  -0.13830   0.00000  -0.02607
           d3           0.00000   0.00000   0.00000  -0.00000   0.00000
           d4           0.00000  -0.00000   0.00000  -0.00000   0.00000
           a3          -0.00000   0.16047   0.03078  -0.00000   0.00702
           d5           0.00000  -0.00000  -0.00000   0.00000   0.00000
           a4          -0.00000  -0.00000   0.00000   0.00000  -0.00000
           t3           0.00000   0.00000   0.21420  -0.00000   0.00000
           d6          -0.00000   0.00000  -0.00000  -0.00000  -0.00000
           a5          -0.00000   0.00000   0.00000   0.00000   0.00000
           t4           0.00000   0.00000   0.07140  -0.00000   0.00000
           d7          -0.00000   0.00000  -0.00000  -0.00000   0.00000
           a6          -0.00000  -0.00000   0.00000   0.00000  -0.00000
           t5           0.00000  -0.00000   0.07140   0.00000   0.00000
                          t2        d3        d4        a3        d5
           t2           0.39309
           d3           0.00000   0.39873
           d4          -0.00000  -0.00000   0.30880
           a3          -0.03066  -0.00000   0.00000   0.32800
           d5          -0.00000  -0.00000  -0.00000   0.00000   0.33636
           a4           0.00000   0.00000   0.00000  -0.00000  -0.00000
           t3           0.21420   0.00000   0.00000   0.00000   0.00000
           d6          -0.00000   0.00000  -0.00000   0.00000  -0.00000
           a5           0.00000  -0.00000  -0.00000   0.00000   0.00000
           t4           0.07140  -0.00000  -0.00000   0.00000  -0.00000
           d7          -0.00000  -0.00000   0.00000   0.00000  -0.00000
           a6           0.00000   0.00000  -0.00000  -0.00000  -0.00000
           t5           0.07140  -0.00000   0.00000  -0.00000  -0.00000
                          a4        t3        d6        a5        t4
           a4           0.35757
           t3           0.00078   0.72101
           d6           0.00000  -0.00000   0.32953
           a5           0.03765  -0.00078  -0.00000   0.35756
           t4          -0.06393   0.25399  -0.00000  -0.06101   0.36645
           d7           0.00000  -0.00000  -0.00000   0.00000  -0.00000
           a6           0.08204  -0.00004  -0.00000   0.08181  -0.03543
           t5           0.00370   0.21304   0.00000  -0.00370  -0.00067
                          d7        a6        t5
           d7           0.12260
           a6          -0.00000   0.30879
           t5          -0.00000   0.00000   0.21439
     Eigenvalues --- 1000.000001000.000001000.000001000.000001000.00000
     Eigenvalues --- 1000.000001000.000001000.000001000.000001000.00000
     Eigenvalues --- 1000.000001000.000001000.000001000.000001000.00000
     Eigenvalues --- 1000.000001000.000001000.00000
 Angle between quadratic step and forces=  90.00 degrees.
 Linear search not attempted -- first point.
 Variable       Old X    -DE/DX   Delta X   Delta X   Delta X     New X
                                 (Linear)    (Quad)   (Total)
    d1        1.92400   1.18724   0.00000   0.00000   0.00000   1.92400
    a1        3.11138  -0.17950   0.00000   0.00000   0.00000   3.11138
    t1        2.08483  -0.09588   0.00000   0.00000   0.00000   2.08483
    d2        2.25724  -0.02624   0.00000   0.00000   0.00000   2.25724
    a2        1.91010  -0.03570   0.00000   0.00000   0.00000   1.91010
    t2       -3.11452   0.12118   0.00000   0.00000   0.00000  -3.11452
    d3        1.98426   0.07769   0.00000   0.00000   0.00000   1.98426
    d4        2.12942   0.03540   0.00000   0.00000   0.00000   2.12942
    a3        1.89179  -0.00143   0.00000   0.00000   0.00000   1.89179
    d5        2.07949   0.00168   0.00000   0.00000   0.00000   2.07949
    a4        1.89380   0.04404   0.00000   0.00000   0.00000   1.89380
    t3        3.14152   0.02230   0.00000   0.00000   0.00000   3.14152
    d6        2.09134   0.01685   0.00000   0.00000   0.00000   2.09134
    a5        1.89383   0.02803   0.00000   0.00000   0.00000   1.89383
    t4        2.09610  -0.00995   0.00000   0.00000   0.00000   2.09610
    d7        2.77036  -0.03513   0.00000   0.00000   0.00000   2.77036
    a6        3.11469  -0.19191   0.00000   0.00000   0.00000   3.11469
    t5       -2.09440   0.00055   0.00000   0.00000   0.00000  -2.09440
         Item               Value     Threshold  Converged?
 Maximum Force            0.000000     0.000450     YES
 RMS     Force            0.000000     0.000300     YES
 Maximum Displacement     0.000000     0.001800     YES
 RMS     Displacement     0.000000     0.001200     YES
 Predicted change in Energy=-0.000000D+00
 Optimization completed.
    -- Stationary point found.
                       ----------------------------
                       !   Optimized Parameters   !
                       ! (Angstroms and Degrees)  !
 ----------------------                            ----------------------
 !      Name          Value   Derivative information (Atomic Units)     !
 ------------------------------------------------------------------------
 !       d1          1.0181   -DE/DX =    1.1872                        !
 !       a1        178.2688   -DE/DX =   -0.1795                        !
 !       t1        119.4517   -DE/DX =   -0.0959                        !
 !       d2          1.1945   -DE/DX =   -0.0262                        !
 !       a2        109.4407   -DE/DX =   -0.0357                        !
 !       t2       -178.4488   -DE/DX =    0.1212                        !
 !       d3          1.05     -DE/DX =    0.0777                        !
 !       d4          1.1268   -DE/DX =    0.0354                        !
 !       a3        108.3916   -DE/DX =   -0.0014                        !
 !       d5          1.1004   -DE/DX =    0.0017                        !
 !       a4        108.507    -DE/DX =    0.044                         !
 !       t3        179.9961   -DE/DX =    0.0223                        !
 !       d6          1.1067   -DE/DX =    0.0169                        !
 !       a5        108.5084   -DE/DX =    0.028                         !
 !       t4        120.0976   -DE/DX =   -0.01                          !
 !       d7          1.466    -DE/DX =   -0.0351                        !
 !       a6        178.4586   -DE/DX =   -0.1919                        !
 !       t5       -120.0      -DE/DX =    0.0006                        !
 ------------------------------------------------------------------------
 GradGradGradGradGradGradGradGradGradGradGradGradGradGradGradGradGradGrad

 Leave Link  103 at Wed May 26 19:09:45 2021, MaxMem=   13107200 cpu:       0.0
 (Enter /programs/64bit/g09/g09-gfortran/bin/l9999.exe)
 1\1\GINC-MOLMOD\Force\RB3LYP\6-31+G(d,p)\C2H6\OSPITE\26-May-2021\1\\#p
  b3lyp/6-31+g(d,p) force nosym\\c2h6 molecule\\0,1\C\C,1,d1\H,1,d2,2,a
 1\H,1,d3,2,a2,3,t1,0\H,1,d4,2,a3,3,t2,0\H,2,d5,1,a4,3,t3,0\H,2,d6,1,a5
 ,6,t4,0\H,2,d7,1,a6,6,t5,0\\d1=1.01813788\a1=178.26878947\t1=119.45174
 796\d2=1.19448147\a2=109.44072646\t2=-178.4488101\d3=1.05002522\d4=1.1
 268409\a3=108.39160599\d5=1.10041949\a4=108.5069763\t3=179.99607127\d6
 =1.10669007\a5=108.5083998\t4=120.09755364\d7=1.46601215\a6=178.458595
 92\t5=-119.99999826\\Version=EM64L-G09RevA.02\HF=-79.1760132\RMSD=2.00
 8e-09\RMSF=3.467e-01\Dipole=-0.5394073,-0.5374713,-0.3487464\Quadrupol
 e=0.9250975,-0.0671098,-0.8579877,0.2781957,-0.4796739,-0.8051132\PG=C
 01 [X(C2H6)]\\@


 WE LEARN WISDOM FROM FAILURE MUCH MORE THAN FROM SUCCESS.
 WE DISCOVER WHAT WILL DO BY FINDING OUT WHAT WILL NOT DO...
 AND HE WHO NEVER MADE A MISTAKE NEVER MADE A DISCOVERY
 Job cpu time:  0 days  0 hours  0 minutes 11.1 seconds.
 File lengths (MBytes):  RWF=      5 Int=      0 D2E=      0 Chk=      1 Scr=      1
 Normal termination of Gaussian 09 at Wed May 26 19:09:45 2021.
