 Entering Gaussian System, Link 0=g09
 Input=c2h6_030.com
 Output=c2h6_030.log
 Initial command:
 /programs/64bit/g09/g09-gfortran/bin/l1.exe /data/scratch/Gau-6606.inp -scrdir=/data/scratch/
 Entering Link 1 = /programs/64bit/g09/g09-gfortran/bin/l1.exe PID=      6607.
  
 Copyright (c) 1988,1990,1992,1993,1995,1998,2003,2009, Gaussian, Inc.
                  All Rights Reserved.
  
 This is part of the Gaussian(R) 09 program.  It is based on
 the Gaussian(R) 03 system (copyright 2003, Gaussian, Inc.),
 the Gaussian(R) 98 system (copyright 1998, Gaussian, Inc.),
 the Gaussian(R) 94 system (copyright 1995, Gaussian, Inc.),
 the Gaussian 92(TM) system (copyright 1992, Gaussian, Inc.),
 the Gaussian 90(TM) system (copyright 1990, Gaussian, Inc.),
 the Gaussian 88(TM) system (copyright 1988, Gaussian, Inc.),
 the Gaussian 86(TM) system (copyright 1986, Carnegie Mellon
 University), and the Gaussian 82(TM) system (copyright 1983,
 Carnegie Mellon University). Gaussian is a federally registered
 trademark of Gaussian, Inc.
  
 This software contains proprietary and confidential information,
 including trade secrets, belonging to Gaussian, Inc.
  
 This software is provided under written license and may be
 used, copied, transmitted, or stored only in accord with that
 written license.
  
 The following legend is applicable only to US Government
 contracts under FAR:
  
                    RESTRICTED RIGHTS LEGEND
  
 Use, reproduction and disclosure by the US Government is
 subject to restrictions as set forth in subparagraphs (a)
 and (c) of the Commercial Computer Software - Restricted
 Rights clause in FAR 52.227-19.
  
 Gaussian, Inc.
 340 Quinnipiac St., Bldg. 40, Wallingford CT 06492
  
  
 ---------------------------------------------------------------
 Warning -- This program may not be used in any manner that
 competes with the business of Gaussian, Inc. or will provide
 assistance to any competitor of Gaussian, Inc.  The licensee
 of this program is prohibited from giving any competitor of
 Gaussian, Inc. access to this program.  By using this program,
 the user acknowledges that Gaussian, Inc. is engaged in the
 business of creating and licensing software in the field of
 computational chemistry and represents and warrants to the
 licensee that it is not a competitor of Gaussian, Inc. and that
 it will not use this program in any manner prohibited above.
 ---------------------------------------------------------------
  

 Cite this work as:
 Gaussian 09, Revision A.02,
 M. J. Frisch, G. W. Trucks, H. B. Schlegel, G. E. Scuseria, 
 M. A. Robb, J. R. Cheeseman, G. Scalmani, V. Barone, B. Mennucci, 
 G. A. Petersson, H. Nakatsuji, M. Caricato, X. Li, H. P. Hratchian, 
 A. F. Izmaylov, J. Bloino, G. Zheng, J. L. Sonnenberg, M. Hada, 
 M. Ehara, K. Toyota, R. Fukuda, J. Hasegawa, M. Ishida, T. Nakajima, 
 Y. Honda, O. Kitao, H. Nakai, T. Vreven, J. A. Montgomery, Jr., 
 J. E. Peralta, F. Ogliaro, M. Bearpark, J. J. Heyd, E. Brothers, 
 K. N. Kudin, V. N. Staroverov, R. Kobayashi, J. Normand, 
 K. Raghavachari, A. Rendell, J. C. Burant, S. S. Iyengar, J. Tomasi, 
 M. Cossi, N. Rega, J. M. Millam, M. Klene, J. E. Knox, J. B. Cross, 
 V. Bakken, C. Adamo, J. Jaramillo, R. Gomperts, R. E. Stratmann, 
 O. Yazyev, A. J. Austin, R. Cammi, C. Pomelli, J. W. Ochterski, 
 R. L. Martin, K. Morokuma, V. G. Zakrzewski, G. A. Voth, 
 P. Salvador, J. J. Dannenberg, S. Dapprich, A. D. Daniels, 
 O. Farkas, J. B. Foresman, J. V. Ortiz, J. Cioslowski, 
 and D. J. Fox, Gaussian, Inc., Wallingford CT, 2009.
 
 ******************************************
 Gaussian 09:  EM64L-G09RevA.02 11-Jun-2009
                26-May-2021 
 ******************************************
 %chk=c2h6_030.chk
 %mem=100MB
 --------------------------------
 #p b3lyp/6-31+g(d,p) force nosym
 --------------------------------
 1/10=7,30=1,38=1/1,3;
 2/12=2,15=1,17=6,18=5,40=1/2;
 3/5=1,6=6,7=111,11=2,16=1,25=1,30=1,71=1,74=-5/1,2,3;
 4//1;
 5/5=2,38=5/2;
 6/7=2,8=2,9=2,10=2,28=1/1;
 7/29=1,30=1/1,2,3,16;
 1/10=7,30=1/3;
 99//99;
 Leave Link    1 at Wed May 26 19:12:47 2021, MaxMem=   13107200 cpu:       0.0
 (Enter /programs/64bit/g09/g09-gfortran/bin/l101.exe)
 -------------
 c2h6 molecule
 -------------
 Symbolic Z-matrix:
 Charge =  0 Multiplicity = 1
 C1
 C2                   1    d1
 H3                   1    d2       2    a1
 H4                   1    d3       2    a2       3    t1       0
 H5                   1    d4       2    a3       3    t2       0
 H6                   2    d5       1    a4       3    t3       0
 H7                   2    d6       1    a5       6    t4       0
 H8                   2    d7       1    a6       6    t5       0
       Variables:
       Constants:
  d1                    1.7306                   
  a1                  150.07034                  
  t1                   98.74169                  
  d2                    1.09193                  
  a2                   88.29359                  
  t2                 -157.61069                  
  d3                    1.09515                  
  d4                    1.08535                  
  a3                   86.09695                  
  d5                    1.08759                  
  a4                   90.41087                  
  t3                  179.82952                  
  d6                    1.09264                  
  a5                   90.60238                  
  t4                  122.37948                  
  d7                    1.10267                  
  a6                  156.06789                  
  t5                 -120.00047                  
 
 NAtoms=      8 NQM=      8 NQMF=      0 NMic=      0 NMicF=      0 NTot=      8.
                    Isotopes and Nuclear Properties:
 (Nuclear quadrupole moments (NQMom) in fm**2, nuclear magnetic moments (NMagM)
  in nuclear magnetons)

  Atom         1           2           3           4           5           6           7           8
 IAtWgt=          12          12           1           1           1           1           1           1
 AtmWgt=  12.0000000  12.0000000   1.0078250   1.0078250   1.0078250   1.0078250   1.0078250   1.0078250
 NucSpn=           0           0           1           1           1           1           1           1
 AtZEff=   0.0000000   0.0000000   0.0000000   0.0000000   0.0000000   0.0000000   0.0000000   0.0000000
 NQMom=    0.0000000   0.0000000   0.0000000   0.0000000   0.0000000   0.0000000   0.0000000   0.0000000
 NMagM=    0.0000000   0.0000000   2.7928460   2.7928460   2.7928460   2.7928460   2.7928460   2.7928460
 Leave Link  101 at Wed May 26 19:12:47 2021, MaxMem=   13107200 cpu:       0.0
 (Enter /programs/64bit/g09/g09-gfortran/bin/l103.exe)

 GradGradGradGradGradGradGradGradGradGradGradGradGradGradGradGradGradGrad
 Berny optimization.
 Initialization pass.
                       ----------------------------
                       !    Initial Parameters    !
                       ! (Angstroms and Degrees)  !
 ----------------------                            ----------------------
 !      Name          Value   Derivative information (Atomic Units)     !
 ------------------------------------------------------------------------
 !       d1          1.7306   Frozen                                    !
 !       a1        150.0703   Frozen                                    !
 !       t1         98.7417   Frozen                                    !
 !       d2          1.0919   Frozen                                    !
 !       a2         88.2936   Frozen                                    !
 !       t2       -157.6107   Frozen                                    !
 !       d3          1.0951   Frozen                                    !
 !       d4          1.0853   Frozen                                    !
 !       a3         86.097    Frozen                                    !
 !       d5          1.0876   Frozen                                    !
 !       a4         90.4109   Frozen                                    !
 !       t3        179.8295   Frozen                                    !
 !       d6          1.0926   Frozen                                    !
 !       a5         90.6024   Frozen                                    !
 !       t4        122.3795   Frozen                                    !
 !       d7          1.1027   Frozen                                    !
 !       a6        156.0679   Frozen                                    !
 !       t5       -120.0005   Frozen                                    !
 ------------------------------------------------------------------------
 Trust Radius=3.00D-01 FncErr=1.00D-07 GrdErr=1.00D-07
 Number of steps in this run=   2 maximum allowed number of steps=   2.
 GradGradGradGradGradGradGradGradGradGradGradGradGradGradGradGradGradGrad

 Leave Link  103 at Wed May 26 19:12:47 2021, MaxMem=   13107200 cpu:       0.0
 (Enter /programs/64bit/g09/g09-gfortran/bin/l202.exe)
                          Input orientation:                          
 ---------------------------------------------------------------------
 Center     Atomic      Atomic             Coordinates (Angstroms)
 Number     Number       Type             X           Y           Z
 ---------------------------------------------------------------------
      1          6           0        0.000000    0.000000    0.000000
      2          6           0        0.000000    0.000000    1.730605
      3          1           0        0.544805    0.000000   -0.946311
      4          1           0       -0.166367   -1.081945    0.032611
      5          1           0       -1.001205    0.412448    0.073878
      6          1           0       -1.087554    0.003236    1.738404
      7          1           0        0.582356   -0.924444    1.742092
      8          1           0        0.224807    0.386708    2.738479
 ---------------------------------------------------------------------
                    Distance matrix (angstroms):
                    1          2          3          4          5
     1  C    0.000000
     2  C    1.730605   0.000000
     3  H    1.091932   2.731792   0.000000
     4  H    1.095146   2.020264   1.623163   0.000000
     5  H    1.085350   1.979209   1.897642   1.712270   0.000000
     6  H    2.050569   1.087586   3.142021   2.221696   1.716263
     7  H    2.056361   1.092643   2.843153   1.872890   2.660430
     8  H    2.774770   1.102674   3.718819   3.103494   2.933235
                    6          7          8
     6  H    0.000000
     7  H    1.910289   0.000000
     8  H    1.693957   1.685155   0.000000
 Symmetry turned off by external request.
 Stoichiometry    C2H6
 Framework group  C1[X(C2H6)]
 Deg. of freedom    18
 Full point group                 C1      NOp   1
 Rotational constants (GHZ):     97.2173016     17.1261297     16.2599737
 Leave Link  202 at Wed May 26 19:12:47 2021, MaxMem=   13107200 cpu:       0.0
 (Enter /programs/64bit/g09/g09-gfortran/bin/l301.exe)
 Standard basis: 6-31+G(d,p) (6D, 7F)
 Ernie: Thresh=  0.10000D-02 Tol=  0.10000D-05 Strict=F.
 Integral buffers will be    131072 words long.
 Raffenetti 2 integral format.
 Two-electron integral symmetry is turned off.
    68 basis functions,   106 primitive gaussians,    68 cartesian basis functions
     9 alpha electrons        9 beta electrons
       nuclear repulsion energy        40.7127445380 Hartrees.
 IExCor=  402 DFT=T Ex+Corr=B3LYP ExCW=0 ScaHFX=  0.200000
 ScaDFX=  0.800000  0.720000  1.000000  0.810000 ScalE2=  1.000000  1.000000
 IRadAn=      0 IRanWt=     -1 IRanGd=            0 ICorTp=0
 NAtoms=    8 NActive=    8 NUniq=    8 SFac= 7.50D-01 NAtFMM=   80 NAOKFM=F Big=F
 Leave Link  301 at Wed May 26 19:12:47 2021, MaxMem=   13107200 cpu:       0.0
 (Enter /programs/64bit/g09/g09-gfortran/bin/l302.exe)
 NPDir=0 NMtPBC=     1 NCelOv=     1 NCel=       1 NClECP=     1 NCelD=      1
         NCelK=      1 NCelE2=     1 NClLst=     1 CellRange=     0.0.
 One-electron integrals computed using PRISM.
 NBasis=    68 RedAO= T  NBF=    68
 NBsUse=    68 1.00D-06 NBFU=    68
 Precomputing XC quadrature grid using
 IXCGrd= 2 IRadAn=           0 IRanWt=          -1 IRanGd=           0 AccXCQ= 1.00D-10.
 NRdTot=     510 NPtTot=       65100 NUsed=       68787 NTot=       68819
 NSgBfM=    68    68    68    68    68 NAtAll=     8     8.
 Leave Link  302 at Wed May 26 19:12:47 2021, MaxMem=   13107200 cpu:       0.1
 (Enter /programs/64bit/g09/g09-gfortran/bin/l303.exe)
 DipDrv:  MaxL=1.
 Leave Link  303 at Wed May 26 19:12:47 2021, MaxMem=   13107200 cpu:       0.0
 (Enter /programs/64bit/g09/g09-gfortran/bin/l401.exe)
 Harris functional with IExCor=  402 diagonalized for initial guess.
 ExpMin= 4.38D-02 ExpMax= 3.05D+03 ExpMxC= 4.57D+02 IAcc=2 IRadAn=         0 AccDes= 0.00D+00
 HarFok:  IExCor=  402 AccDes= 0.00D+00 IRadAn=         0 IDoV= 1
 ScaDFX=  1.000000  1.000000  1.000000  1.000000
 FoFCou: FMM=F IPFlag=           0 FMFlag=      100000 FMFlg1=           0
         NFxFlg=           0 DoJE=T BraDBF=F KetDBF=T FulRan=T
         Omega=  0.000000  0.000000  1.000000  0.000000  0.000000 ICntrl=     500 IOpCl=  0
         NMat0=    1 NMatS0=    1 NMatT0=    0 NMatD0=    1 NMtDS0=    0 NMtDT0=    0
         I1Cent=           4 NGrid=           0.
 Symmetry not used in FoFCou.
 Harris En= -79.7659469938157    
 Leave Link  401 at Wed May 26 19:12:48 2021, MaxMem=   13107200 cpu:       0.7
 (Enter /programs/64bit/g09/g09-gfortran/bin/l502.exe)
 Closed shell SCF:
 Requested convergence on RMS density matrix=1.00D-08 within 128 cycles.
 Requested convergence on MAX density matrix=1.00D-06.
 Requested convergence on             energy=1.00D-06.
 No special actions if energy rises.
 Using DIIS extrapolation, IDIIS=  1040.
 Two-electron integral symmetry not used.
        68702 words used for storage of precomputed grid.
 Keep R1 ints in memory in canonical form, NReq=3743087.
 IEnd=      101552 IEndB=      101552 NGot=    13107200 MDV=    10273922
 LenX=    10273922 LenY=    10268857
 Symmetry not used in FoFDir.
 MinBra= 0 MaxBra= 2 Meth= 1.
 IRaf=       0 NMat=   1 IRICut=       1 DoRegI=T DoRafI=F ISym2E= 0 JSym2E=0.

 Cycle   1  Pass 1  IDiag  1:
 E= -79.6136320747377    
 DIIS: error= 3.54D-02 at cycle   1 NSaved=   1.
 NSaved= 1 IEnMin= 1 EnMin= -79.6136320747377     IErMin= 1 ErrMin= 3.54D-02
 ErrMax= 3.54D-02 EMaxC= 1.00D-01 BMatC= 9.21D-02 BMatP= 9.21D-02
 IDIUse=3 WtCom= 6.46D-01 WtEn= 3.54D-01
 Coeff-Com:  0.100D+01
 Coeff-En:   0.100D+01
 Coeff:      0.100D+01
 Gap=     0.317 Goal=   None    Shift=    0.000
 GapD=    0.317 DampG=1.000 DampE=0.500 DampFc=0.5000 IDamp=-1.
 Damping current iteration by 5.00D-01
 RMSDP=1.08D-02 MaxDP=1.29D-01              OVMax= 2.06D-01

 Cycle   2  Pass 1  IDiag  1:
 E= -79.6583340922347     Delta-E=       -0.044702017497 Rises=F Damp=T
 DIIS: error= 9.04D-03 at cycle   2 NSaved=   2.
 NSaved= 2 IEnMin= 2 EnMin= -79.6583340922347     IErMin= 2 ErrMin= 9.04D-03
 ErrMax= 9.04D-03 EMaxC= 1.00D-01 BMatC= 4.26D-03 BMatP= 9.21D-02
 IDIUse=3 WtCom= 9.10D-01 WtEn= 9.04D-02
 Coeff-Com:  0.103D+00 0.897D+00
 Coeff-En:   0.172D+00 0.828D+00
 Coeff:      0.109D+00 0.891D+00
 Gap=     0.303 Goal=   None    Shift=    0.000
 RMSDP=1.95D-03 MaxDP=2.71D-02 DE=-4.47D-02 OVMax= 1.16D-01

 Cycle   3  Pass 1  IDiag  1:
 E= -79.7198586996429     Delta-E=       -0.061524607408 Rises=F Damp=F
 DIIS: error= 2.07D-03 at cycle   3 NSaved=   3.
 NSaved= 3 IEnMin= 3 EnMin= -79.7198586996429     IErMin= 3 ErrMin= 2.07D-03
 ErrMax= 2.07D-03 EMaxC= 1.00D-01 BMatC= 3.22D-04 BMatP= 4.26D-03
 IDIUse=3 WtCom= 9.79D-01 WtEn= 2.07D-02
 Coeff-Com:  0.573D-02 0.182D+00 0.812D+00
 Coeff-En:   0.000D+00 0.000D+00 0.100D+01
 Coeff:      0.561D-02 0.179D+00 0.816D+00
 Gap=     0.291 Goal=   None    Shift=    0.000
 RMSDP=4.48D-04 MaxDP=4.48D-03 DE=-6.15D-02 OVMax= 6.48D-03

 Cycle   4  Pass 1  IDiag  1:
 E= -79.7201728185398     Delta-E=       -0.000314118897 Rises=F Damp=F
 DIIS: error= 4.42D-04 at cycle   4 NSaved=   4.
 NSaved= 4 IEnMin= 4 EnMin= -79.7201728185398     IErMin= 4 ErrMin= 4.42D-04
 ErrMax= 4.42D-04 EMaxC= 1.00D-01 BMatC= 1.55D-05 BMatP= 3.22D-04
 IDIUse=3 WtCom= 9.96D-01 WtEn= 4.42D-03
 Coeff-Com: -0.471D-03 0.534D-03 0.177D+00 0.823D+00
 Coeff-En:   0.000D+00 0.000D+00 0.000D+00 0.100D+01
 Coeff:     -0.469D-03 0.532D-03 0.176D+00 0.824D+00
 Gap=     0.292 Goal=   None    Shift=    0.000
 RMSDP=1.10D-04 MaxDP=1.31D-03 DE=-3.14D-04 OVMax= 1.73D-03

 Cycle   5  Pass 1  IDiag  1:
 E= -79.7201874716885     Delta-E=       -0.000014653149 Rises=F Damp=F
 DIIS: error= 1.24D-04 at cycle   5 NSaved=   5.
 NSaved= 5 IEnMin= 5 EnMin= -79.7201874716885     IErMin= 5 ErrMin= 1.24D-04
 ErrMax= 1.24D-04 EMaxC= 1.00D-01 BMatC= 1.61D-06 BMatP= 1.55D-05
 IDIUse=3 WtCom= 9.99D-01 WtEn= 1.24D-03
 Coeff-Com: -0.145D-03-0.126D-02 0.893D-01 0.450D+00 0.462D+00
 Coeff-En:   0.000D+00 0.000D+00 0.000D+00 0.000D+00 0.100D+01
 Coeff:     -0.145D-03-0.126D-02 0.892D-01 0.450D+00 0.462D+00
 Gap=     0.292 Goal=   None    Shift=    0.000
 RMSDP=2.01D-05 MaxDP=2.88D-04 DE=-1.47D-05 OVMax= 6.09D-04

 Cycle   6  Pass 1  IDiag  1:
 E= -79.7201891591183     Delta-E=       -0.000001687430 Rises=F Damp=F
 DIIS: error= 2.59D-05 at cycle   6 NSaved=   6.
 NSaved= 6 IEnMin= 6 EnMin= -79.7201891591183     IErMin= 6 ErrMin= 2.59D-05
 ErrMax= 2.59D-05 EMaxC= 1.00D-01 BMatC= 7.22D-08 BMatP= 1.61D-06
 IDIUse=1 WtCom= 1.00D+00 WtEn= 0.00D+00
 Coeff-Com:  0.144D-03-0.745D-03 0.102D-01 0.630D-01 0.191D+00 0.736D+00
 Coeff:      0.144D-03-0.745D-03 0.102D-01 0.630D-01 0.191D+00 0.736D+00
 Gap=     0.292 Goal=   None    Shift=    0.000
 RMSDP=3.99D-06 MaxDP=5.68D-05 DE=-1.69D-06 OVMax= 9.03D-05

 Cycle   7  Pass 1  IDiag  1:
 E= -79.7201892345342     Delta-E=       -0.000000075416 Rises=F Damp=F
 DIIS: error= 3.03D-06 at cycle   7 NSaved=   7.
 NSaved= 7 IEnMin= 7 EnMin= -79.7201892345342     IErMin= 7 ErrMin= 3.03D-06
 ErrMax= 3.03D-06 EMaxC= 1.00D-01 BMatC= 1.24D-09 BMatP= 7.22D-08
 IDIUse=1 WtCom= 1.00D+00 WtEn= 0.00D+00
 Coeff-Com:  0.705D-04-0.183D-03-0.118D-02-0.247D-02 0.338D-01 0.192D+00
 Coeff-Com:  0.778D+00
 Coeff:      0.705D-04-0.183D-03-0.118D-02-0.247D-02 0.338D-01 0.192D+00
 Coeff:      0.778D+00
 Gap=     0.292 Goal=   None    Shift=    0.000
 RMSDP=1.00D-06 MaxDP=1.04D-05 DE=-7.54D-08 OVMax= 1.44D-05

 Cycle   8  Pass 1  IDiag  1:
 E= -79.7201892360189     Delta-E=       -0.000000001485 Rises=F Damp=F
 DIIS: error= 6.32D-07 at cycle   8 NSaved=   8.
 NSaved= 8 IEnMin= 8 EnMin= -79.7201892360189     IErMin= 8 ErrMin= 6.32D-07
 ErrMax= 6.32D-07 EMaxC= 1.00D-01 BMatC= 2.53D-11 BMatP= 1.24D-09
 IDIUse=1 WtCom= 1.00D+00 WtEn= 0.00D+00
 Coeff-Com:  0.124D-04-0.196D-04-0.507D-03-0.204D-02 0.218D-02 0.194D-01
 Coeff-Com:  0.169D+00 0.812D+00
 Coeff:      0.124D-04-0.196D-04-0.507D-03-0.204D-02 0.218D-02 0.194D-01
 Coeff:      0.169D+00 0.812D+00
 Gap=     0.292 Goal=   None    Shift=    0.000
 RMSDP=1.52D-07 MaxDP=1.75D-06 DE=-1.48D-09 OVMax= 2.55D-06

 Cycle   9  Pass 1  IDiag  1:
 E= -79.7201892360511     Delta-E=       -0.000000000032 Rises=F Damp=F
 DIIS: error= 8.38D-08 at cycle   9 NSaved=   9.
 NSaved= 9 IEnMin= 9 EnMin= -79.7201892360511     IErMin= 9 ErrMin= 8.38D-08
 ErrMax= 8.38D-08 EMaxC= 1.00D-01 BMatC= 5.87D-13 BMatP= 2.53D-11
 IDIUse=1 WtCom= 1.00D+00 WtEn= 0.00D+00
 Coeff-Com: -0.389D-06 0.198D-05-0.434D-04-0.194D-03-0.546D-03-0.248D-02
 Coeff-Com:  0.598D-02 0.141D+00 0.857D+00
 Coeff:     -0.389D-06 0.198D-05-0.434D-04-0.194D-03-0.546D-03-0.248D-02
 Coeff:      0.598D-02 0.141D+00 0.857D+00
 Gap=     0.292 Goal=   None    Shift=    0.000
 RMSDP=1.99D-08 MaxDP=2.28D-07 DE=-3.22D-11 OVMax= 4.10D-07

 Cycle  10  Pass 1  IDiag  1:
 E= -79.7201892360519     Delta-E=       -0.000000000001 Rises=F Damp=F
 DIIS: error= 1.13D-08 at cycle  10 NSaved=  10.
 NSaved=10 IEnMin=10 EnMin= -79.7201892360519     IErMin=10 ErrMin= 1.13D-08
 ErrMax= 1.13D-08 EMaxC= 1.00D-01 BMatC= 1.22D-14 BMatP= 5.87D-13
 IDIUse=1 WtCom= 1.00D+00 WtEn= 0.00D+00
 Coeff-Com: -0.407D-06 0.666D-06-0.278D-06-0.102D-05-0.157D-03-0.897D-03
 Coeff-Com: -0.227D-02 0.862D-02 0.147D+00 0.847D+00
 Coeff:     -0.407D-06 0.666D-06-0.278D-06-0.102D-05-0.157D-03-0.897D-03
 Coeff:     -0.227D-02 0.862D-02 0.147D+00 0.847D+00
 Gap=     0.292 Goal=   None    Shift=    0.000
 RMSDP=3.12D-09 MaxDP=3.33D-08 DE=-7.96D-13 OVMax= 4.81D-08

 SCF Done:  E(RB3LYP) =  -79.7201892361     A.U. after   10 cycles
             Convg  =    0.3120D-08             -V/T =  2.0107
 KE= 7.887378917622D+01 PE=-2.648179706959D+02 EE= 6.551124774564D+01
 Leave Link  502 at Wed May 26 19:12:54 2021, MaxMem=   13107200 cpu:       6.6
 (Enter /programs/64bit/g09/g09-gfortran/bin/l601.exe)
 Copying SCF densities to generalized density rwf, IOpCl= 0 IROHF=0.

 **********************************************************************

            Population analysis using the SCF density.

 **********************************************************************

 Alpha  occ. eigenvalues --  -10.19915 -10.19875  -0.75196  -0.63137  -0.47167
 Alpha  occ. eigenvalues --   -0.43236  -0.36792  -0.32850  -0.28967
 Alpha virt. eigenvalues --    0.00190   0.00936   0.04975   0.05830   0.06582
 Alpha virt. eigenvalues --    0.07364   0.08670   0.10251   0.14722   0.15477
 Alpha virt. eigenvalues --    0.19847   0.21427   0.25409   0.29478   0.32768
 Alpha virt. eigenvalues --    0.64467   0.64738   0.65687   0.68948   0.74238
 Alpha virt. eigenvalues --    0.75698   0.87882   0.88973   0.95092   0.97194
 Alpha virt. eigenvalues --    1.03422   1.04243   1.05576   1.21327   1.30440
 Alpha virt. eigenvalues --    1.43376   1.54326   1.69832   1.80490   1.93061
 Alpha virt. eigenvalues --    1.96239   2.02539   2.10657   2.14637   2.17460
 Alpha virt. eigenvalues --    2.21582   2.26755   2.36412   2.39330   2.57898
 Alpha virt. eigenvalues --    2.65953   2.66391   2.70614   2.73988   2.86964
 Alpha virt. eigenvalues --    2.91350   3.22263   3.26063   3.36240   3.41575
 Alpha virt. eigenvalues --    3.50557   3.65097   4.26469   4.67199
          Condensed to atoms (all electrons):
              1          2          3          4          5          6
     1  C    5.242883   0.138130   0.356799   0.434957   0.427334  -0.086737
     2  C    0.138130   5.222050   0.015848  -0.086642  -0.079225   0.439883
     3  H    0.356799   0.015848   0.534980  -0.049808  -0.017292   0.003590
     4  H    0.434957  -0.086642  -0.049808   0.618986  -0.037481  -0.005581
     5  H    0.427334  -0.079225  -0.017292  -0.037481   0.562325  -0.015884
     6  H   -0.086737   0.439883   0.003590  -0.005581  -0.015884   0.591748
     7  H   -0.093659   0.441315   0.002222  -0.024180   0.005769  -0.015645
     8  H    0.035457   0.340766  -0.000794   0.003857   0.000634  -0.045429
              7          8
     1  C   -0.093659   0.035457
     2  C    0.441315   0.340766
     3  H    0.002222  -0.000794
     4  H   -0.024180   0.003857
     5  H    0.005769   0.000634
     6  H   -0.015645  -0.045429
     7  H    0.579673  -0.041168
     8  H   -0.041168   0.553286
 Mulliken atomic charges:
              1
     1  C   -0.455163
     2  C   -0.432125
     3  H    0.154454
     4  H    0.145893
     5  H    0.153821
     6  H    0.134056
     7  H    0.145673
     8  H    0.153391
 Sum of Mulliken atomic charges =  -0.00000
 Mulliken charges with hydrogens summed into heavy atoms:
              1
     1  C   -0.000995
     2  C    0.000995
 Sum of Mulliken charges with hydrogens summed into heavy atoms =  -0.00000
 Electronic spatial extent (au):  <R**2>=            169.1429
 Charge=              0.0000 electrons
 Dipole moment (field-independent basis, Debye):
    X=             -0.2641    Y=             -0.5370    Z=             -0.0185  Tot=              0.5988
 Quadrupole moment (field-independent basis, Debye-Ang):
   XX=            -15.4610   YY=            -16.3990   ZZ=            -14.6947
   XY=             -1.0508   XZ=             -0.7363   YZ=              0.1767
 Traceless Quadrupole moment (field-independent basis, Debye-Ang):
   XX=              0.0572   YY=             -0.8808   ZZ=              0.8236
   XY=             -1.0508   XZ=             -0.7363   YZ=              0.1767
 Octapole moment (field-independent basis, Debye-Ang**2):
  XXX=              1.0322  YYY=              1.7915  ZZZ=            -38.4313  XYY=              0.8899
  XXY=              0.9730  XXZ=            -13.3142  XZZ=              1.1934  YZZ=              1.3896
  YYZ=            -14.8890  XYZ=             -1.1429
 Hexadecapole moment (field-independent basis, Debye-Ang**3):
 XXXX=            -31.0337 YYYY=            -30.8362 ZZZZ=           -171.4213 XXXY=             -0.1890
 XXXZ=              0.2953 YYYX=              0.1635 YYYZ=              1.0709 ZZZX=              1.9746
 ZZZY=              4.6642 XXYY=            -10.5428 XXZZ=            -36.3011 YYZZ=            -39.3884
 XXYZ=              0.5071 YYXZ=              0.9022 ZZXY=             -1.5277
 N-N= 4.071274453801D+01 E-N=-2.648179703127D+02  KE= 7.887378917622D+01
 No NMR shielding tensors so no spin-rotation constants.
 Leave Link  601 at Wed May 26 19:12:54 2021, MaxMem=   13107200 cpu:       0.1
 (Enter /programs/64bit/g09/g09-gfortran/bin/l701.exe)
 Compute integral first derivatives.
 ... and contract with generalized density number  0.
 Leave Link  701 at Wed May 26 19:12:55 2021, MaxMem=   13107200 cpu:       0.1
 (Enter /programs/64bit/g09/g09-gfortran/bin/l702.exe)
 L702 exits ... SP integral derivatives will be done elsewhere.
 Leave Link  702 at Wed May 26 19:12:55 2021, MaxMem=   13107200 cpu:       0.0
 (Enter /programs/64bit/g09/g09-gfortran/bin/l703.exe)
 Compute integral first derivatives, UseDBF=F ICtDFT=           0.
 Integral derivatives from FoFDir, PRISM(SPDF).
 Calling FoFJK, ICntrl=      2127 FMM=F ISym2X=0 I1Cent= 0 IOpClX= 0 NMat=1 NMatS=1 NMatT=0.
 FoFCou: FMM=F IPFlag=           0 FMFlag=      100000 FMFlg1=         800
         NFxFlg=           0 DoJE=F BraDBF=F KetDBF=F FulRan=T
         Omega=  0.000000  0.000000  1.000000  0.000000  0.000000 ICntrl=    2127 IOpCl=  0
         NMat0=    1 NMatS0=    1 NMatT0=    0 NMatD0=    1 NMtDS0=    0 NMtDT0=    0
         I1Cent=           0 NGrid=           0.
 Symmetry not used in FoFCou.
 Leave Link  703 at Wed May 26 19:12:56 2021, MaxMem=   13107200 cpu:       1.5
 (Enter /programs/64bit/g09/g09-gfortran/bin/l716.exe)
 Dipole        =-1.03909863D-01-2.11284827D-01-7.29624408D-03
 -------------------------------------------------------------------
 Center     Atomic                   Forces (Hartrees/Bohr)
 Number     Number              X              Y              Z
 -------------------------------------------------------------------
      1        6          -0.034708782   -0.018415934    0.036780833
      2        6           0.021970883   -0.025866208   -0.013384009
      3        1           0.019355937    0.034418084    0.010286640
      4        1          -0.008276062   -0.000152700   -0.005589255
      5        1           0.000634456    0.008878595   -0.042206349
      6        1           0.000061317   -0.023399467    0.012763129
      7        1          -0.020413517   -0.012529799    0.020466386
      8        1           0.021375768    0.037067429   -0.019117376
 -------------------------------------------------------------------
 Cartesian Forces:  Max     0.042206349 RMS     0.022128820
 -----------------------------------------------------------------------------------------------
                       Internal Coordinate Forces (Hartree/Bohr or radian)
  Cent   Atom   N1       Length/X         N2         Alpha/Y        N3         Beta/Z          J
 -----------------------------------------------------------------------------------------------
      1  C 
      2  C        1   0.000728(     1)
      3  H        1   0.000743(     2)      2  -0.045204(     8)
      4  H        1   0.001242(     3)      2   0.011649(     9)      3   0.016873(    14)     0
      5  H        1  -0.000084(     4)      2   0.086755(    10)      3   0.017293(    15)     0
      6  H        2  -0.000039(     5)      1   0.026233(    11)      3  -0.001234(    16)     0
      7  H        2  -0.000064(     6)      1   0.042263(    12)      6  -0.049450(    17)     0
      8  H        2  -0.000116(     7)      1  -0.097656(    13)      6   0.000126(    18)     0
 -----------------------------------------------------------------------------------------------
 Internal  Forces:  Max     0.097655670 RMS     0.037080797
 Force constants in Cartesian coordinates: 
                1             2             3             4             5 
      1  0.640009D+00
      2 -0.600697D-01  0.588041D+00
      3 -0.140463D+00 -0.141186D-01  0.623968D+00
      4 -0.963339D-01 -0.406402D-02  0.121899D-01  0.678430D+00
      5 -0.636802D-02 -0.894900D-01  0.137966D-01 -0.913918D-01  0.553900D+00
      6 -0.515155D-02 -0.953463D-02 -0.166140D+00  0.502052D-01  0.860902D-01
      7 -0.163732D+00  0.121330D-01  0.857557D-01  0.225096D-01  0.634550D-03
      8  0.244603D-01 -0.860804D-01 -0.115529D-01 -0.194098D-02  0.108362D-01
      9  0.104879D+00  0.698512D-02 -0.296532D+00  0.129591D-01  0.365320D-03
     10 -0.739899D-01 -0.573730D-01  0.204654D-01  0.548017D-03 -0.227564D-03
     11 -0.406556D-01 -0.333442D+00  0.509684D-02 -0.181808D-03 -0.674034D-03
     12  0.196788D-01 -0.578234D-03 -0.687441D-01 -0.323613D-02 -0.235233D-01
     13 -0.321844D+00  0.102530D+00  0.220515D-01 -0.226511D-03  0.236732D-02
     14  0.741314D-01 -0.106049D+00  0.677804D-02  0.337520D-02  0.406977D-02
     15  0.159052D-01  0.771172D-02 -0.925521D-01 -0.219129D-01  0.936143D-02
     16  0.168280D-03  0.435389D-05  0.000000D+00 -0.350887D+00  0.717945D-03
     17 -0.106262D-02  0.277614D-02  0.000000D+00 -0.160251D-01 -0.809952D-01
     18  0.239070D-01 -0.544730D-03  0.000000D+00  0.127469D-01 -0.118854D-01
     19  0.338238D-02  0.199522D-02  0.000000D+00 -0.148308D+00  0.106703D+00
     20  0.196810D-02  0.150399D-02  0.000000D+00  0.123749D+00 -0.277809D+00
     21 -0.130884D-01  0.198847D-01  0.000000D+00 -0.172512D-01  0.514688D-02
     22  0.123402D-01  0.484401D-02  0.000000D+00 -0.105733D+00 -0.124350D-01
     23  0.759608D-02  0.227396D-01  0.000000D+00 -0.135209D-01 -0.119838D+00
     24 -0.566700D-02 -0.980535D-02  0.000000D+00 -0.457009D-01 -0.793517D-01
                6             7             8             9            10 
      6  0.623384D+00
      7  0.000000D+00  0.140146D+00
      8  0.000000D+00 -0.814587D-02  0.600700D-01
      9  0.000000D+00 -0.118457D+00 -0.468969D-02  0.277705D+00
     10  0.000000D+00  0.850146D-03 -0.195305D-01  0.489442D-03  0.578728D-01
     11  0.000000D+00 -0.127997D-04  0.396989D-02 -0.736899D-05  0.431454D-01
     12  0.000000D+00  0.391237D-02  0.320743D-01  0.225241D-02 -0.192947D-01
     13  0.000000D+00  0.225689D-03  0.378438D-02  0.129933D-03  0.140437D-01
     14  0.000000D+00 -0.460884D-02  0.120222D-01 -0.265338D-02  0.343880D-01
     15  0.000000D+00  0.287890D-01 -0.158317D-01  0.165742D-01 -0.166016D-02
     16  0.192227D-02  0.000000D+00  0.323435D-05  0.000000D+00  0.159101D-05
     17 -0.110846D-01  0.000000D+00  0.108701D-02  0.000000D+00  0.534714D-03
     18 -0.782774D-01  0.000000D+00  0.000000D+00  0.000000D+00  0.000000D+00
     19 -0.108329D-01  0.000000D+00 -0.915507D-03  0.000000D+00 -0.450348D-03
     20 -0.349198D-02  0.000000D+00 -0.576726D-03  0.000000D+00 -0.283698D-03
     21 -0.769272D-01  0.000000D+00  0.000000D+00  0.000000D+00  0.000000D+00
     22 -0.361429D-01  0.000000D+00  0.228490D-02  0.000000D+00  0.112397D-02
     23 -0.619790D-01  0.000000D+00 -0.132829D-02  0.000000D+00 -0.653401D-03
     24 -0.302039D+00  0.000000D+00  0.000000D+00  0.000000D+00  0.000000D+00
               11            12            13            14            15 
     11  0.335451D+00
     12 -0.535254D-02  0.662332D-01
     13 -0.219141D-02 -0.106032D-02  0.308064D+00
     14 -0.536669D-02 -0.262019D-02 -0.106647D+00  0.949433D-01
     15  0.263066D-03  0.258444D-03 -0.211211D-01 -0.150448D-02  0.757194D-01
     16  0.000000D+00  0.000000D+00  0.000000D+00 -0.150462D-05  0.000000D+00
     17 -0.822209D-04  0.000000D+00 -0.208316D-03 -0.505681D-03  0.000000D+00
     18  0.000000D+00  0.000000D+00  0.000000D+00  0.000000D+00  0.000000D+00
     19  0.692483D-04  0.000000D+00  0.175449D-03  0.425896D-03  0.000000D+00
     20  0.436232D-04  0.000000D+00  0.110524D-03  0.268294D-03  0.000000D+00
     21  0.000000D+00  0.000000D+00  0.000000D+00  0.000000D+00  0.000000D+00
     22 -0.172828D-03  0.000000D+00 -0.437879D-03 -0.106294D-02  0.000000D+00
     23  0.100471D-03  0.000000D+00  0.254555D-03  0.617923D-03  0.000000D+00
     24  0.000000D+00  0.000000D+00  0.000000D+00  0.000000D+00  0.000000D+00
               16            17            18            19            20 
     16  0.350914D+00
     17 -0.813304D-03  0.507368D-01
     18 -0.197306D-02  0.111426D-01  0.711700D-01
     19  0.908228D-04  0.320484D-01 -0.632461D-03  0.133928D+00
     20  0.572033D-04  0.201806D-01 -0.396445D-03 -0.132884D+00  0.261424D+00
     21  0.000000D+00 -0.676357D-03  0.158979D-03  0.111040D-01  0.358088D-02
     22 -0.287233D-03 -0.144739D-01 -0.340484D-01  0.111811D-01  0.728258D-02
     23  0.323163D-04  0.680249D-02  0.168394D-02 -0.744187D-02 -0.503517D-02
     24  0.516683D-04  0.618375D-03  0.694841D-02  0.361406D-03  0.307545D-03
               21            22            23            24 
     21  0.703403D-01
     22  0.192365D-01  0.818125D-01
     23 -0.279361D-01  0.137332D-01  0.959412D-01
     24  0.642799D-02  0.509548D-01  0.882311D-01  0.288662D+00
 Force constants in internal coordinates: 
                1             2             3             4             5 
      1  0.166140D+00
      2  0.000000D+00  0.345903D+00
      3  0.000000D+00  0.000000D+00  0.342246D+00
      4  0.000000D+00  0.000000D+00  0.000000D+00  0.353556D+00
      5  0.000000D+00  0.000000D+00  0.000000D+00  0.000000D+00  0.350931D+00
      6  0.000000D+00  0.000000D+00  0.000000D+00  0.000000D+00  0.000000D+00
      7  0.000000D+00  0.000000D+00  0.000000D+00  0.000000D+00  0.000000D+00
      8  0.000000D+00  0.000000D+00  0.000000D+00  0.000000D+00  0.000000D+00
      9  0.000000D+00  0.000000D+00  0.000000D+00  0.000000D+00  0.000000D+00
     10  0.000000D+00  0.000000D+00  0.000000D+00  0.000000D+00  0.000000D+00
     11  0.000000D+00  0.000000D+00  0.000000D+00  0.000000D+00  0.000000D+00
     12  0.000000D+00  0.000000D+00  0.000000D+00  0.000000D+00  0.000000D+00
     13  0.000000D+00  0.000000D+00  0.000000D+00  0.000000D+00  0.000000D+00
     14  0.000000D+00  0.000000D+00  0.000000D+00  0.000000D+00  0.000000D+00
     15  0.000000D+00  0.000000D+00  0.000000D+00  0.000000D+00  0.000000D+00
     16  0.000000D+00  0.000000D+00  0.000000D+00  0.000000D+00  0.000000D+00
     17  0.000000D+00  0.000000D+00  0.000000D+00  0.000000D+00  0.000000D+00
     18  0.000000D+00  0.000000D+00  0.000000D+00  0.000000D+00  0.000000D+00
                6             7             8             9            10 
      6  0.345090D+00
      7  0.000000D+00  0.333881D+00
      8  0.000000D+00  0.000000D+00  0.306346D+00
      9  0.000000D+00  0.000000D+00  0.192868D-01  0.282624D+00
     10  0.000000D+00  0.000000D+00  0.140916D+00  0.110004D-02  0.313085D+00
     11  0.000000D+00  0.000000D+00  0.000000D+00  0.000000D+00  0.000000D+00
     12  0.000000D+00  0.000000D+00  0.000000D+00  0.000000D+00  0.000000D+00
     13  0.000000D+00  0.000000D+00  0.000000D+00  0.000000D+00  0.000000D+00
     14  0.000000D+00  0.000000D+00  0.414819D-02 -0.781939D-01 -0.714802D-02
     15  0.000000D+00  0.000000D+00  0.203432D-01  0.119751D-01  0.396942D-01
     16  0.000000D+00  0.000000D+00  0.000000D+00  0.000000D+00  0.000000D+00
     17  0.000000D+00  0.000000D+00  0.000000D+00  0.000000D+00  0.000000D+00
     18  0.000000D+00  0.000000D+00  0.000000D+00  0.000000D+00  0.000000D+00
               11            12            13            14            15 
     11  0.300562D+00
     12  0.674707D-03  0.299758D+00
     13  0.733583D-01  0.681815D-01  0.256561D+00
     14  0.000000D+00  0.000000D+00  0.000000D+00  0.219615D+00
     15  0.000000D+00  0.000000D+00  0.000000D+00 -0.159134D+00  0.212476D+00
     16  0.240017D-02 -0.247085D-02 -0.282759D-03  0.690000D-02  0.690000D-02
     17 -0.316754D-02  0.481925D-01  0.498169D-02  0.230000D-02  0.230000D-02
     18  0.526093D-01 -0.535337D-01  0.126536D-02  0.230000D-02  0.230000D-02
               16            17            18 
     16  0.483778D-01
     17  0.256782D-01  0.214393D+00
     18 -0.320778D-02 -0.280076D-01  0.524782D-01
 Leave Link  716 at Wed May 26 19:12:56 2021, MaxMem=   13107200 cpu:       0.0
 (Enter /programs/64bit/g09/g09-gfortran/bin/l103.exe)

 GradGradGradGradGradGradGradGradGradGradGradGradGradGradGradGradGradGrad
 Berny optimization.
 Search for a local minimum.
 Step number   1 out of a maximum of    2
 All quantities printed in internal units (Hartrees-Bohrs-Radians)
 Second derivative matrix not updated -- first step.
 The second derivative matrix:
                          d1        a1        t1        d2        a2
           d1           0.16614
           a1          -0.00000   0.30635
           t1          -0.00000   0.00415   0.21961
           d2           0.00000  -0.00000   0.00000   0.34590
           a2          -0.00000   0.01929  -0.07819   0.00000   0.28262
           t2          -0.00000   0.02034  -0.15913   0.00000   0.01198
           d3           0.00000   0.00000   0.00000  -0.00000  -0.00000
           d4          -0.00000   0.00000   0.00000  -0.00000  -0.00000
           a3          -0.00000   0.14092  -0.00715   0.00000   0.00110
           d5           0.00000  -0.00000  -0.00000   0.00000  -0.00000
           a4          -0.00000  -0.00000   0.00000   0.00000   0.00000
           t3          -0.00000   0.00000   0.00690   0.00000  -0.00000
           d6          -0.00000  -0.00000   0.00000  -0.00000  -0.00000
           a5           0.00000   0.00000   0.00000   0.00000   0.00000
           t4           0.00000  -0.00000   0.00230   0.00000  -0.00000
           d7           0.00000  -0.00000  -0.00000   0.00000   0.00000
           a6          -0.00000  -0.00000  -0.00000   0.00000  -0.00000
           t5          -0.00000   0.00000   0.00230  -0.00000   0.00000
                          t2        d3        d4        a3        d5
           t2           0.21248
           d3           0.00000   0.34225
           d4           0.00000  -0.00000   0.35356
           a3           0.03969  -0.00000  -0.00000   0.31308
           d5           0.00000   0.00000   0.00000   0.00000   0.35093
           a4          -0.00000  -0.00000  -0.00000  -0.00000  -0.00000
           t3           0.00690  -0.00000   0.00000   0.00000  -0.00000
           d6           0.00000  -0.00000  -0.00000  -0.00000   0.00000
           a5           0.00000   0.00000   0.00000   0.00000   0.00000
           t4           0.00230  -0.00000   0.00000   0.00000   0.00000
           d7          -0.00000  -0.00000   0.00000   0.00000   0.00000
           a6           0.00000   0.00000  -0.00000  -0.00000  -0.00000
           t5           0.00230   0.00000   0.00000   0.00000  -0.00000
                          a4        t3        d6        a5        t4
           a4           0.30056
           t3           0.00240   0.04838
           d6          -0.00000  -0.00000   0.34509
           a5           0.00067  -0.00247  -0.00000   0.29976
           t4          -0.00317   0.02568  -0.00000   0.04819   0.21439
           d7           0.00000   0.00000   0.00000  -0.00000  -0.00000
           a6           0.07336  -0.00028  -0.00000   0.06818   0.00498
           t5           0.05261  -0.00321   0.00000  -0.05353  -0.02801
                          d7        a6        t5
           d7           0.33388
           a6          -0.00000   0.25656
           t5           0.00000   0.00127   0.05248
     Eigenvalues --- 1000.000001000.000001000.000001000.000001000.00000
     Eigenvalues --- 1000.000001000.000001000.000001000.000001000.00000
     Eigenvalues --- 1000.000001000.000001000.000001000.000001000.00000
     Eigenvalues --- 1000.000001000.000001000.00000
 Angle between quadratic step and forces=  90.00 degrees.
 Linear search not attempted -- first point.
 Variable       Old X    -DE/DX   Delta X   Delta X   Delta X     New X
                                 (Linear)    (Quad)   (Total)
    d1        3.27037   0.00073   0.00000   0.00000   0.00000   3.27037
    a1        2.61922  -0.04520   0.00000   0.00000   0.00000   2.61922
    t1        1.72337   0.01687   0.00000   0.00000   0.00000   1.72337
    d2        2.06345   0.00074   0.00000   0.00000   0.00000   2.06345
    a2        1.54101   0.01165   0.00000   0.00000   0.00000   1.54101
    t2       -2.75083   0.01729   0.00000   0.00000   0.00000  -2.75083
    d3        2.06953   0.00124   0.00000   0.00000   0.00000   2.06953
    d4        2.05101  -0.00008   0.00000   0.00000   0.00000   2.05101
    a3        1.50268   0.08676   0.00000   0.00000   0.00000   1.50268
    d5        2.05524  -0.00004   0.00000   0.00000   0.00000   2.05524
    a4        1.57797   0.02623   0.00000   0.00000   0.00000   1.57797
    t3        3.13862  -0.00123   0.00000   0.00000   0.00000   3.13862
    d6        2.06480  -0.00006   0.00000   0.00000   0.00000   2.06480
    a5        1.58131   0.04226   0.00000   0.00000   0.00000   1.58131
    t4        2.13592  -0.04945   0.00000   0.00000   0.00000   2.13592
    d7        2.08375  -0.00012   0.00000   0.00000   0.00000   2.08375
    a6        2.72390  -0.09766   0.00000   0.00000   0.00000   2.72390
    t5       -2.09440   0.00013   0.00000   0.00000   0.00000  -2.09440
         Item               Value     Threshold  Converged?
 Maximum Force            0.000000     0.000450     YES
 RMS     Force            0.000000     0.000300     YES
 Maximum Displacement     0.000000     0.001800     YES
 RMS     Displacement     0.000000     0.001200     YES
 Predicted change in Energy=-0.000000D+00
 Optimization completed.
    -- Stationary point found.
                       ----------------------------
                       !   Optimized Parameters   !
                       ! (Angstroms and Degrees)  !
 ----------------------                            ----------------------
 !      Name          Value   Derivative information (Atomic Units)     !
 ------------------------------------------------------------------------
 !       d1          1.7306   -DE/DX =    0.0007                        !
 !       a1        150.0703   -DE/DX =   -0.0452                        !
 !       t1         98.7417   -DE/DX =    0.0169                        !
 !       d2          1.0919   -DE/DX =    0.0007                        !
 !       a2         88.2936   -DE/DX =    0.0116                        !
 !       t2       -157.6107   -DE/DX =    0.0173                        !
 !       d3          1.0951   -DE/DX =    0.0012                        !
 !       d4          1.0853   -DE/DX =   -0.0001                        !
 !       a3         86.097    -DE/DX =    0.0868                        !
 !       d5          1.0876   -DE/DX =    0.0                           !
 !       a4         90.4109   -DE/DX =    0.0262                        !
 !       t3        179.8295   -DE/DX =   -0.0012                        !
 !       d6          1.0926   -DE/DX =   -0.0001                        !
 !       a5         90.6024   -DE/DX =    0.0423                        !
 !       t4        122.3795   -DE/DX =   -0.0495                        !
 !       d7          1.1027   -DE/DX =   -0.0001                        !
 !       a6        156.0679   -DE/DX =   -0.0977                        !
 !       t5       -120.0005   -DE/DX =    0.0001                        !
 ------------------------------------------------------------------------
 GradGradGradGradGradGradGradGradGradGradGradGradGradGradGradGradGradGrad

 Leave Link  103 at Wed May 26 19:12:56 2021, MaxMem=   13107200 cpu:       0.0
 (Enter /programs/64bit/g09/g09-gfortran/bin/l9999.exe)
 1\1\GINC-MOLMOD\Force\RB3LYP\6-31+G(d,p)\C2H6\OSPITE\26-May-2021\1\\#p
  b3lyp/6-31+g(d,p) force nosym\\c2h6 molecule\\0,1\C\C,1,d1\H,1,d2,2,a
 1\H,1,d3,2,a2,3,t1,0\H,1,d4,2,a3,3,t2,0\H,2,d5,1,a4,3,t3,0\H,2,d6,1,a5
 ,6,t4,0\H,2,d7,1,a6,6,t5,0\\d1=1.73060498\a1=150.07034223\t1=98.741686
 73\d2=1.09193238\a2=88.29359324\t2=-157.61069304\d3=1.09514638\d4=1.08
 534952\a3=86.09695479\d5=1.08758639\a4=90.41086995\t3=179.82952011\d6=
 1.09264266\a5=90.60238264\t4=122.37947799\d7=1.10267425\a6=156.0678932
 8\t5=-120.00046849\\Version=EM64L-G09RevA.02\HF=-79.7201892\RMSD=3.120
 e-09\RMSF=2.213e-02\Dipole=-0.1039099,-0.2112848,-0.0072962\Quadrupole
 =0.0425509,-0.6548441,0.6122931,-0.7812605,-0.5474021,0.1313916\PG=C01
  [X(C2H6)]\\@


 NEVER LISTEN TO CRITICISM
 OR YOU'LL BE DOIN' EVERYBODY ELSE'S THING BUT BUT YOUR OWN.

                                               -- ANDY CAPP
 Job cpu time:  0 days  0 hours  0 minutes  9.3 seconds.
 File lengths (MBytes):  RWF=      5 Int=      0 D2E=      0 Chk=      1 Scr=      1
 Normal termination of Gaussian 09 at Wed May 26 19:12:56 2021.
