 Entering Gaussian System, Link 0=g09
 Input=c2h6_055.com
 Output=c2h6_055.log
 Initial command:
 /programs/64bit/g09/g09-gfortran/bin/l1.exe /data/scratch/Gau-7254.inp -scrdir=/data/scratch/
 Entering Link 1 = /programs/64bit/g09/g09-gfortran/bin/l1.exe PID=      7255.
  
 Copyright (c) 1988,1990,1992,1993,1995,1998,2003,2009, Gaussian, Inc.
                  All Rights Reserved.
  
 This is part of the Gaussian(R) 09 program.  It is based on
 the Gaussian(R) 03 system (copyright 2003, Gaussian, Inc.),
 the Gaussian(R) 98 system (copyright 1998, Gaussian, Inc.),
 the Gaussian(R) 94 system (copyright 1995, Gaussian, Inc.),
 the Gaussian 92(TM) system (copyright 1992, Gaussian, Inc.),
 the Gaussian 90(TM) system (copyright 1990, Gaussian, Inc.),
 the Gaussian 88(TM) system (copyright 1988, Gaussian, Inc.),
 the Gaussian 86(TM) system (copyright 1986, Carnegie Mellon
 University), and the Gaussian 82(TM) system (copyright 1983,
 Carnegie Mellon University). Gaussian is a federally registered
 trademark of Gaussian, Inc.
  
 This software contains proprietary and confidential information,
 including trade secrets, belonging to Gaussian, Inc.
  
 This software is provided under written license and may be
 used, copied, transmitted, or stored only in accord with that
 written license.
  
 The following legend is applicable only to US Government
 contracts under FAR:
  
                    RESTRICTED RIGHTS LEGEND
  
 Use, reproduction and disclosure by the US Government is
 subject to restrictions as set forth in subparagraphs (a)
 and (c) of the Commercial Computer Software - Restricted
 Rights clause in FAR 52.227-19.
  
 Gaussian, Inc.
 340 Quinnipiac St., Bldg. 40, Wallingford CT 06492
  
  
 ---------------------------------------------------------------
 Warning -- This program may not be used in any manner that
 competes with the business of Gaussian, Inc. or will provide
 assistance to any competitor of Gaussian, Inc.  The licensee
 of this program is prohibited from giving any competitor of
 Gaussian, Inc. access to this program.  By using this program,
 the user acknowledges that Gaussian, Inc. is engaged in the
 business of creating and licensing software in the field of
 computational chemistry and represents and warrants to the
 licensee that it is not a competitor of Gaussian, Inc. and that
 it will not use this program in any manner prohibited above.
 ---------------------------------------------------------------
  

 Cite this work as:
 Gaussian 09, Revision A.02,
 M. J. Frisch, G. W. Trucks, H. B. Schlegel, G. E. Scuseria, 
 M. A. Robb, J. R. Cheeseman, G. Scalmani, V. Barone, B. Mennucci, 
 G. A. Petersson, H. Nakatsuji, M. Caricato, X. Li, H. P. Hratchian, 
 A. F. Izmaylov, J. Bloino, G. Zheng, J. L. Sonnenberg, M. Hada, 
 M. Ehara, K. Toyota, R. Fukuda, J. Hasegawa, M. Ishida, T. Nakajima, 
 Y. Honda, O. Kitao, H. Nakai, T. Vreven, J. A. Montgomery, Jr., 
 J. E. Peralta, F. Ogliaro, M. Bearpark, J. J. Heyd, E. Brothers, 
 K. N. Kudin, V. N. Staroverov, R. Kobayashi, J. Normand, 
 K. Raghavachari, A. Rendell, J. C. Burant, S. S. Iyengar, J. Tomasi, 
 M. Cossi, N. Rega, J. M. Millam, M. Klene, J. E. Knox, J. B. Cross, 
 V. Bakken, C. Adamo, J. Jaramillo, R. Gomperts, R. E. Stratmann, 
 O. Yazyev, A. J. Austin, R. Cammi, C. Pomelli, J. W. Ochterski, 
 R. L. Martin, K. Morokuma, V. G. Zakrzewski, G. A. Voth, 
 P. Salvador, J. J. Dannenberg, S. Dapprich, A. D. Daniels, 
 O. Farkas, J. B. Foresman, J. V. Ortiz, J. Cioslowski, 
 and D. J. Fox, Gaussian, Inc., Wallingford CT, 2009.
 
 ******************************************
 Gaussian 09:  EM64L-G09RevA.02 11-Jun-2009
                26-May-2021 
 ******************************************
 %chk=c2h6_055.chk
 %mem=100MB
 --------------------------------
 #p b3lyp/6-31+g(d,p) force nosym
 --------------------------------
 1/10=7,30=1,38=1/1,3;
 2/12=2,15=1,17=6,18=5,40=1/2;
 3/5=1,6=6,7=111,11=2,16=1,25=1,30=1,71=1,74=-5/1,2,3;
 4//1;
 5/5=2,38=5/2;
 6/7=2,8=2,9=2,10=2,28=1/1;
 7/29=1,30=1/1,2,3,16;
 1/10=7,30=1/3;
 99//99;
 Leave Link    1 at Wed May 26 19:17:08 2021, MaxMem=   13107200 cpu:       0.0
 (Enter /programs/64bit/g09/g09-gfortran/bin/l101.exe)
 -------------
 c2h6 molecule
 -------------
 Symbolic Z-matrix:
 Charge =  0 Multiplicity = 1
 C1
 C2                   1    d1
 H3                   1    d2       2    a1
 H4                   1    d3       2    a2       3    t1       0
 H5                   1    d4       2    a3       3    t2       0
 H6                   2    d5       1    a4       3    t3       0
 H7                   2    d6       1    a5       6    t4       0
 H8                   2    d7       1    a6       6    t5       0
       Variables:
       Constants:
  d1                    1.54103                  
  a1                  110.91826                  
  t1                  107.38605                  
  d2                    1.09367                  
  a2                  104.78551                  
  t2                 -141.88082                  
  d3                    1.10519                  
  d4                    1.08978                  
  a3                  113.73525                  
  d5                    1.09747                  
  a4                  106.15804                  
  t3                  178.89195                  
  d6                    1.09632                  
  a5                  114.77072                  
  t4                  113.76848                  
  d7                    1.09357                  
  a6                  114.23809                  
  t5                 -123.22209                  
 
 NAtoms=      8 NQM=      8 NQMF=      0 NMic=      0 NMicF=      0 NTot=      8.
                    Isotopes and Nuclear Properties:
 (Nuclear quadrupole moments (NQMom) in fm**2, nuclear magnetic moments (NMagM)
  in nuclear magnetons)

  Atom         1           2           3           4           5           6           7           8
 IAtWgt=          12          12           1           1           1           1           1           1
 AtmWgt=  12.0000000  12.0000000   1.0078250   1.0078250   1.0078250   1.0078250   1.0078250   1.0078250
 NucSpn=           0           0           1           1           1           1           1           1
 AtZEff=   0.0000000   0.0000000   0.0000000   0.0000000   0.0000000   0.0000000   0.0000000   0.0000000
 NQMom=    0.0000000   0.0000000   0.0000000   0.0000000   0.0000000   0.0000000   0.0000000   0.0000000
 NMagM=    0.0000000   0.0000000   2.7928460   2.7928460   2.7928460   2.7928460   2.7928460   2.7928460
 Leave Link  101 at Wed May 26 19:17:08 2021, MaxMem=   13107200 cpu:       0.0
 (Enter /programs/64bit/g09/g09-gfortran/bin/l103.exe)

 GradGradGradGradGradGradGradGradGradGradGradGradGradGradGradGradGradGrad
 Berny optimization.
 Initialization pass.
                       ----------------------------
                       !    Initial Parameters    !
                       ! (Angstroms and Degrees)  !
 ----------------------                            ----------------------
 !      Name          Value   Derivative information (Atomic Units)     !
 ------------------------------------------------------------------------
 !       d1          1.541    Frozen                                    !
 !       a1        110.9183   Frozen                                    !
 !       t1        107.386    Frozen                                    !
 !       d2          1.0937   Frozen                                    !
 !       a2        104.7855   Frozen                                    !
 !       t2       -141.8808   Frozen                                    !
 !       d3          1.1052   Frozen                                    !
 !       d4          1.0898   Frozen                                    !
 !       a3        113.7353   Frozen                                    !
 !       d5          1.0975   Frozen                                    !
 !       a4        106.158    Frozen                                    !
 !       t3        178.892    Frozen                                    !
 !       d6          1.0963   Frozen                                    !
 !       a5        114.7707   Frozen                                    !
 !       t4        113.7685   Frozen                                    !
 !       d7          1.0936   Frozen                                    !
 !       a6        114.2381   Frozen                                    !
 !       t5       -123.2221   Frozen                                    !
 ------------------------------------------------------------------------
 Trust Radius=3.00D-01 FncErr=1.00D-07 GrdErr=1.00D-07
 Number of steps in this run=   2 maximum allowed number of steps=   2.
 GradGradGradGradGradGradGradGradGradGradGradGradGradGradGradGradGradGrad

 Leave Link  103 at Wed May 26 19:17:08 2021, MaxMem=   13107200 cpu:       0.0
 (Enter /programs/64bit/g09/g09-gfortran/bin/l202.exe)
                          Input orientation:                          
 ---------------------------------------------------------------------
 Center     Atomic      Atomic             Coordinates (Angstroms)
 Number     Number       Type             X           Y           Z
 ---------------------------------------------------------------------
      1          6           0        0.000000    0.000000    0.000000
      2          6           0        0.000000    0.000000    1.541027
      3          1           0        1.021589    0.000000   -0.390480
      4          1           0       -0.319305   -1.019774   -0.282046
      5          1           0       -0.784840    0.615818   -0.438648
      6          1           0       -1.053919    0.020384    1.846439
      7          1           0        0.383515   -0.918604    2.000371
      8          1           0        0.562364    0.823465    1.989970
 ---------------------------------------------------------------------
                    Distance matrix (angstroms):
                    1          2          3          4          5
     1  C    0.000000
     2  C    1.541027   0.000000
     3  H    1.093672   2.185031   0.000000
     4  H    1.105190   2.113170   1.688103   0.000000
     5  H    1.089779   2.216826   1.909120   1.707749   0.000000
     6  H    2.126146   1.097469   3.051550   2.480329   2.376671
     7  H    2.234368   1.096318   2.639534   2.390318   3.109392
     8  H    2.225832   1.093571   2.560375   3.055638   2.785007
                    6          7          8
     6  H    0.000000
     7  H    1.723836   0.000000
     8  H    1.810501   1.751256   0.000000
 Symmetry turned off by external request.
 Stoichiometry    C2H6
 Framework group  C1[X(C2H6)]
 Deg. of freedom    18
 Full point group                 C1      NOp   1
 Rotational constants (GHZ):     80.0431858     19.9508557     19.6167525
 Leave Link  202 at Wed May 26 19:17:08 2021, MaxMem=   13107200 cpu:       0.0
 (Enter /programs/64bit/g09/g09-gfortran/bin/l301.exe)
 Standard basis: 6-31+G(d,p) (6D, 7F)
 Ernie: Thresh=  0.10000D-02 Tol=  0.10000D-05 Strict=F.
 Integral buffers will be    131072 words long.
 Raffenetti 2 integral format.
 Two-electron integral symmetry is turned off.
    68 basis functions,   106 primitive gaussians,    68 cartesian basis functions
     9 alpha electrons        9 beta electrons
       nuclear repulsion energy        42.0461721879 Hartrees.
 IExCor=  402 DFT=T Ex+Corr=B3LYP ExCW=0 ScaHFX=  0.200000
 ScaDFX=  0.800000  0.720000  1.000000  0.810000 ScalE2=  1.000000  1.000000
 IRadAn=      0 IRanWt=     -1 IRanGd=            0 ICorTp=0
 NAtoms=    8 NActive=    8 NUniq=    8 SFac= 7.50D-01 NAtFMM=   80 NAOKFM=F Big=F
 Leave Link  301 at Wed May 26 19:17:08 2021, MaxMem=   13107200 cpu:       0.0
 (Enter /programs/64bit/g09/g09-gfortran/bin/l302.exe)
 NPDir=0 NMtPBC=     1 NCelOv=     1 NCel=       1 NClECP=     1 NCelD=      1
         NCelK=      1 NCelE2=     1 NClLst=     1 CellRange=     0.0.
 One-electron integrals computed using PRISM.
 NBasis=    68 RedAO= T  NBF=    68
 NBsUse=    68 1.00D-06 NBFU=    68
 Precomputing XC quadrature grid using
 IXCGrd= 2 IRadAn=           0 IRanWt=          -1 IRanGd=           0 AccXCQ= 1.00D-10.
 NRdTot=     510 NPtTot=       65100 NUsed=       68787 NTot=       68819
 NSgBfM=    68    68    68    68    68 NAtAll=     8     8.
 Leave Link  302 at Wed May 26 19:17:08 2021, MaxMem=   13107200 cpu:       0.1
 (Enter /programs/64bit/g09/g09-gfortran/bin/l303.exe)
 DipDrv:  MaxL=1.
 Leave Link  303 at Wed May 26 19:17:08 2021, MaxMem=   13107200 cpu:       0.0
 (Enter /programs/64bit/g09/g09-gfortran/bin/l401.exe)
 Harris functional with IExCor=  402 diagonalized for initial guess.
 ExpMin= 4.38D-02 ExpMax= 3.05D+03 ExpMxC= 4.57D+02 IAcc=2 IRadAn=         0 AccDes= 0.00D+00
 HarFok:  IExCor=  402 AccDes= 0.00D+00 IRadAn=         0 IDoV= 1
 ScaDFX=  1.000000  1.000000  1.000000  1.000000
 FoFCou: FMM=F IPFlag=           0 FMFlag=      100000 FMFlg1=           0
         NFxFlg=           0 DoJE=T BraDBF=F KetDBF=T FulRan=T
         Omega=  0.000000  0.000000  1.000000  0.000000  0.000000 ICntrl=     500 IOpCl=  0
         NMat0=    1 NMatS0=    1 NMatT0=    0 NMatD0=    1 NMtDS0=    0 NMtDT0=    0
         I1Cent=           4 NGrid=           0.
 Symmetry not used in FoFCou.
 Harris En= -79.8883671066621    
 Leave Link  401 at Wed May 26 19:17:09 2021, MaxMem=   13107200 cpu:       0.8
 (Enter /programs/64bit/g09/g09-gfortran/bin/l502.exe)
 Closed shell SCF:
 Requested convergence on RMS density matrix=1.00D-08 within 128 cycles.
 Requested convergence on MAX density matrix=1.00D-06.
 Requested convergence on             energy=1.00D-06.
 No special actions if energy rises.
 Using DIIS extrapolation, IDIIS=  1040.
 Two-electron integral symmetry not used.
        68702 words used for storage of precomputed grid.
 Keep R1 ints in memory in canonical form, NReq=3743087.
 IEnd=      101552 IEndB=      101552 NGot=    13107200 MDV=    10273922
 LenX=    10273922 LenY=    10268857
 Symmetry not used in FoFDir.
 MinBra= 0 MaxBra= 2 Meth= 1.
 IRaf=       0 NMat=   1 IRICut=       1 DoRegI=T DoRafI=F ISym2E= 0 JSym2E=0.

 Cycle   1  Pass 1  IDiag  1:
 E= -79.7014741770730    
 DIIS: error= 3.99D-02 at cycle   1 NSaved=   1.
 NSaved= 1 IEnMin= 1 EnMin= -79.7014741770730     IErMin= 1 ErrMin= 3.99D-02
 ErrMax= 3.99D-02 EMaxC= 1.00D-01 BMatC= 1.15D-01 BMatP= 1.15D-01
 IDIUse=3 WtCom= 6.01D-01 WtEn= 3.99D-01
 Coeff-Com:  0.100D+01
 Coeff-En:   0.100D+01
 Coeff:      0.100D+01
 Gap=     0.266 Goal=   None    Shift=    0.000
 GapD=    0.266 DampG=1.000 DampE=0.500 DampFc=0.5000 IDamp=-1.
 Damping current iteration by 5.00D-01
 RMSDP=9.71D-03 MaxDP=1.43D-01              OVMax= 2.03D-01

 Cycle   2  Pass 1  IDiag  1:
 E= -79.7552356274465     Delta-E=       -0.053761450373 Rises=F Damp=T
 DIIS: error= 1.12D-02 at cycle   2 NSaved=   2.
 NSaved= 2 IEnMin= 2 EnMin= -79.7552356274465     IErMin= 2 ErrMin= 1.12D-02
 ErrMax= 1.12D-02 EMaxC= 1.00D-01 BMatC= 4.74D-03 BMatP= 1.15D-01
 IDIUse=3 WtCom= 8.88D-01 WtEn= 1.12D-01
 Coeff-Com:  0.112D+00 0.888D+00
 Coeff-En:   0.191D+00 0.809D+00
 Coeff:      0.121D+00 0.879D+00
 Gap=     0.376 Goal=   None    Shift=    0.000
 RMSDP=1.35D-03 MaxDP=1.12D-02 DE=-5.38D-02 OVMax= 1.18D-01

 Cycle   3  Pass 1  IDiag  1:
 E= -79.8316822283626     Delta-E=       -0.076446600916 Rises=F Damp=F
 DIIS: error= 1.77D-03 at cycle   3 NSaved=   3.
 NSaved= 3 IEnMin= 3 EnMin= -79.8316822283626     IErMin= 3 ErrMin= 1.77D-03
 ErrMax= 1.77D-03 EMaxC= 1.00D-01 BMatC= 1.86D-04 BMatP= 4.74D-03
 IDIUse=3 WtCom= 9.82D-01 WtEn= 1.77D-02
 Coeff-Com:  0.836D-02 0.122D+00 0.869D+00
 Coeff-En:   0.000D+00 0.000D+00 0.100D+01
 Coeff:      0.822D-02 0.120D+00 0.872D+00
 Gap=     0.348 Goal=   None    Shift=    0.000
 RMSDP=2.30D-04 MaxDP=2.11D-03 DE=-7.64D-02 OVMax= 4.61D-03

 Cycle   4  Pass 1  IDiag  1:
 E= -79.8318465718397     Delta-E=       -0.000164343477 Rises=F Damp=F
 DIIS: error= 4.08D-04 at cycle   4 NSaved=   4.
 NSaved= 4 IEnMin= 4 EnMin= -79.8318465718397     IErMin= 4 ErrMin= 4.08D-04
 ErrMax= 4.08D-04 EMaxC= 1.00D-01 BMatC= 1.17D-05 BMatP= 1.86D-04
 IDIUse=3 WtCom= 9.96D-01 WtEn= 4.08D-03
 Coeff-Com: -0.520D-03-0.484D-02 0.190D+00 0.816D+00
 Coeff-En:   0.000D+00 0.000D+00 0.000D+00 0.100D+01
 Coeff:     -0.518D-03-0.482D-02 0.189D+00 0.816D+00
 Gap=     0.348 Goal=   None    Shift=    0.000
 RMSDP=5.08D-05 MaxDP=4.37D-04 DE=-1.64D-04 OVMax= 1.12D-03

 Cycle   5  Pass 1  IDiag  1:
 E= -79.8318579362082     Delta-E=       -0.000011364368 Rises=F Damp=F
 DIIS: error= 4.20D-05 at cycle   5 NSaved=   5.
 NSaved= 5 IEnMin= 5 EnMin= -79.8318579362082     IErMin= 5 ErrMin= 4.20D-05
 ErrMax= 4.20D-05 EMaxC= 1.00D-01 BMatC= 1.51D-07 BMatP= 1.17D-05
 IDIUse=1 WtCom= 1.00D+00 WtEn= 0.00D+00
 Coeff-Com:  0.120D-03-0.201D-02 0.495D-01 0.230D+00 0.723D+00
 Coeff:      0.120D-03-0.201D-02 0.495D-01 0.230D+00 0.723D+00
 Gap=     0.348 Goal=   None    Shift=    0.000
 RMSDP=7.25D-06 MaxDP=1.11D-04 DE=-1.14D-05 OVMax= 1.57D-04

 Cycle   6  Pass 1  IDiag  1:
 E= -79.8318580701173     Delta-E=       -0.000000133909 Rises=F Damp=F
 DIIS: error= 2.62D-05 at cycle   6 NSaved=   6.
 NSaved= 6 IEnMin= 6 EnMin= -79.8318580701173     IErMin= 6 ErrMin= 2.62D-05
 ErrMax= 2.62D-05 EMaxC= 1.00D-01 BMatC= 2.93D-08 BMatP= 1.51D-07
 IDIUse=1 WtCom= 1.00D+00 WtEn= 0.00D+00
 Coeff-Com:  0.178D-03-0.510D-03 0.416D-02 0.254D-01 0.319D+00 0.652D+00
 Coeff:      0.178D-03-0.510D-03 0.416D-02 0.254D-01 0.319D+00 0.652D+00
 Gap=     0.348 Goal=   None    Shift=    0.000
 RMSDP=2.27D-06 MaxDP=5.06D-05 DE=-1.34D-07 OVMax= 5.96D-05

 Cycle   7  Pass 1  IDiag  1:
 E= -79.8318580975407     Delta-E=       -0.000000027423 Rises=F Damp=F
 DIIS: error= 5.59D-06 at cycle   7 NSaved=   7.
 NSaved= 7 IEnMin= 7 EnMin= -79.8318580975407     IErMin= 7 ErrMin= 5.59D-06
 ErrMax= 5.59D-06 EMaxC= 1.00D-01 BMatC= 1.70D-09 BMatP= 2.93D-08
 IDIUse=1 WtCom= 1.00D+00 WtEn= 0.00D+00
 Coeff-Com:  0.747D-04-0.883D-04-0.186D-02-0.597D-02 0.819D-01 0.275D+00
 Coeff-Com:  0.651D+00
 Coeff:      0.747D-04-0.883D-04-0.186D-02-0.597D-02 0.819D-01 0.275D+00
 Coeff:      0.651D+00
 Gap=     0.348 Goal=   None    Shift=    0.000
 RMSDP=6.21D-07 MaxDP=9.26D-06 DE=-2.74D-08 OVMax= 1.35D-05

 Cycle   8  Pass 1  IDiag  1:
 E= -79.8318580993040     Delta-E=       -0.000000001763 Rises=F Damp=F
 DIIS: error= 1.85D-07 at cycle   8 NSaved=   8.
 NSaved= 8 IEnMin= 8 EnMin= -79.8318580993040     IErMin= 8 ErrMin= 1.85D-07
 ErrMax= 1.85D-07 EMaxC= 1.00D-01 BMatC= 4.10D-12 BMatP= 1.70D-09
 IDIUse=1 WtCom= 1.00D+00 WtEn= 0.00D+00
 Coeff-Com:  0.256D-06 0.442D-07-0.191D-03-0.743D-03 0.793D-03 0.102D-01
 Coeff-Com:  0.586D-01 0.931D+00
 Coeff:      0.256D-06 0.442D-07-0.191D-03-0.743D-03 0.793D-03 0.102D-01
 Coeff:      0.586D-01 0.931D+00
 Gap=     0.348 Goal=   None    Shift=    0.000
 RMSDP=4.13D-08 MaxDP=4.83D-07 DE=-1.76D-09 OVMax= 7.21D-07

 Cycle   9  Pass 1  IDiag  1:
 E= -79.8318580993087     Delta-E=       -0.000000000005 Rises=F Damp=F
 DIIS: error= 2.60D-08 at cycle   9 NSaved=   9.
 NSaved= 9 IEnMin= 9 EnMin= -79.8318580993087     IErMin= 9 ErrMin= 2.60D-08
 ErrMax= 2.60D-08 EMaxC= 1.00D-01 BMatC= 6.63D-14 BMatP= 4.10D-12
 IDIUse=1 WtCom= 1.00D+00 WtEn= 0.00D+00
 Coeff-Com: -0.880D-06 0.724D-06-0.134D-04-0.682D-04-0.769D-03-0.108D-02
 Coeff-Com:  0.406D-02 0.165D+00 0.833D+00
 Coeff:     -0.880D-06 0.724D-06-0.134D-04-0.682D-04-0.769D-03-0.108D-02
 Coeff:      0.406D-02 0.165D+00 0.833D+00
 Gap=     0.348 Goal=   None    Shift=    0.000
 RMSDP=5.31D-09 MaxDP=6.29D-08 DE=-4.63D-12 OVMax= 9.04D-08

 SCF Done:  E(RB3LYP) =  -79.8318580993     A.U. after    9 cycles
             Convg  =    0.5310D-08             -V/T =  2.0110
 KE= 7.896068411014D+01 PE=-2.678052385847D+02 EE= 6.696652418741D+01
 Leave Link  502 at Wed May 26 19:17:14 2021, MaxMem=   13107200 cpu:       5.1
 (Enter /programs/64bit/g09/g09-gfortran/bin/l601.exe)
 Copying SCF densities to generalized density rwf, IOpCl= 0 IROHF=0.

 **********************************************************************

            Population analysis using the SCF density.

 **********************************************************************

 Alpha  occ. eigenvalues --  -10.17951 -10.17798  -0.75321  -0.61769  -0.44672
 Alpha  occ. eigenvalues --   -0.42620  -0.37121  -0.34708  -0.33113
 Alpha virt. eigenvalues --    0.01686   0.03009   0.05164   0.05545   0.08003
 Alpha virt. eigenvalues --    0.08815   0.09100   0.14247   0.15035   0.20004
 Alpha virt. eigenvalues --    0.20653   0.23889   0.25186   0.29325   0.32867
 Alpha virt. eigenvalues --    0.62134   0.64225   0.64822   0.67306   0.68295
 Alpha virt. eigenvalues --    0.69905   0.88658   0.92072   0.94235   0.99967
 Alpha virt. eigenvalues --    1.01247   1.09809   1.10218   1.30799   1.34229
 Alpha virt. eigenvalues --    1.46639   1.65697   1.70184   1.88044   1.92951
 Alpha virt. eigenvalues --    2.03028   2.08775   2.11297   2.16979   2.17897
 Alpha virt. eigenvalues --    2.24809   2.28926   2.37845   2.45620   2.53267
 Alpha virt. eigenvalues --    2.66830   2.73225   2.76664   2.82290   2.85584
 Alpha virt. eigenvalues --    2.94157   3.21712   3.29614   3.37697   3.40966
 Alpha virt. eigenvalues --    3.48381   3.55303   4.34039   4.58742
          Condensed to atoms (all electrons):
              1          2          3          4          5          6
     1  C    5.097106   0.259308   0.399188   0.410866   0.409118  -0.048050
     2  C    0.259308   5.107004  -0.040177  -0.060958  -0.042735   0.402266
     3  H    0.399188  -0.040177   0.547526  -0.037545  -0.016468   0.004714
     4  H    0.410866  -0.060958  -0.037545   0.588030  -0.036730  -0.002982
     5  H    0.409118  -0.042735  -0.016468  -0.036730   0.537730  -0.006597
     6  H   -0.048050   0.402266   0.004714  -0.002982  -0.006597   0.566525
     7  H   -0.043166   0.407760  -0.000991  -0.008585   0.004014  -0.033127
     8  H   -0.036333   0.397411  -0.005437   0.005030  -0.001534  -0.024349
              7          8
     1  C   -0.043166  -0.036333
     2  C    0.407760   0.397411
     3  H   -0.000991  -0.005437
     4  H   -0.008585   0.005030
     5  H    0.004014  -0.001534
     6  H   -0.033127  -0.024349
     7  H    0.562193  -0.032994
     8  H   -0.032994   0.552050
 Mulliken atomic charges:
              1
     1  C   -0.448038
     2  C   -0.429880
     3  H    0.149189
     4  H    0.142874
     5  H    0.153203
     6  H    0.141599
     7  H    0.144897
     8  H    0.146156
 Sum of Mulliken atomic charges =   0.00000
 Mulliken charges with hydrogens summed into heavy atoms:
              1
     1  C   -0.002771
     2  C    0.002771
 Sum of Mulliken charges with hydrogens summed into heavy atoms =   0.00000
 Electronic spatial extent (au):  <R**2>=            149.6314
 Charge=              0.0000 electrons
 Dipole moment (field-independent basis, Debye):
    X=             -0.0582    Y=             -0.1562    Z=             -0.0062  Tot=              0.1668
 Quadrupole moment (field-independent basis, Debye-Ang):
   XX=            -14.7508   YY=            -15.4189   ZZ=            -15.8453
   XY=             -0.1460   XZ=              0.1839   YZ=             -0.1447
 Traceless Quadrupole moment (field-independent basis, Debye-Ang):
   XX=              0.5875   YY=             -0.0805   ZZ=             -0.5070
   XY=             -0.1460   XZ=              0.1839   YZ=             -0.1447
 Octapole moment (field-independent basis, Debye-Ang**2):
  XXX=              0.2556  YYY=              0.6937  ZZZ=            -36.6498  XYY=              0.2543
  XXY=              0.6852  XXZ=            -11.9262  XZZ=              0.5794  YZZ=              0.0324
  YYZ=            -11.5991  XYZ=              0.4265
 Hexadecapole moment (field-independent basis, Debye-Ang**3):
 XXXX=            -31.3655 YYYY=            -31.3445 ZZZZ=           -155.9041 XXXY=             -0.2341
 XXXZ=             -0.8236 YYYX=              0.1635 YYYZ=              0.0356 ZZZX=              1.6842
 ZZZY=             -0.7113 XXYY=            -10.6455 XXZZ=            -30.1746 YYZZ=            -29.8521
 XXYZ=              0.1564 YYXZ=              1.1844 ZZXY=              0.4571
 N-N= 4.204617218787D+01 E-N=-2.678052381104D+02  KE= 7.896068411014D+01
 No NMR shielding tensors so no spin-rotation constants.
 Leave Link  601 at Wed May 26 19:17:14 2021, MaxMem=   13107200 cpu:       0.0
 (Enter /programs/64bit/g09/g09-gfortran/bin/l701.exe)
 Compute integral first derivatives.
 ... and contract with generalized density number  0.
 Leave Link  701 at Wed May 26 19:17:14 2021, MaxMem=   13107200 cpu:       0.0
 (Enter /programs/64bit/g09/g09-gfortran/bin/l702.exe)
 L702 exits ... SP integral derivatives will be done elsewhere.
 Leave Link  702 at Wed May 26 19:17:14 2021, MaxMem=   13107200 cpu:       0.0
 (Enter /programs/64bit/g09/g09-gfortran/bin/l703.exe)
 Compute integral first derivatives, UseDBF=F ICtDFT=           0.
 Integral derivatives from FoFDir, PRISM(SPDF).
 Calling FoFJK, ICntrl=      2127 FMM=F ISym2X=0 I1Cent= 0 IOpClX= 0 NMat=1 NMatS=1 NMatT=0.
 FoFCou: FMM=F IPFlag=           0 FMFlag=      100000 FMFlg1=         800
         NFxFlg=           0 DoJE=F BraDBF=F KetDBF=F FulRan=T
         Omega=  0.000000  0.000000  1.000000  0.000000  0.000000 ICntrl=    2127 IOpCl=  0
         NMat0=    1 NMatS0=    1 NMatT0=    0 NMatD0=    1 NMtDS0=    0 NMtDT0=    0
         I1Cent=           0 NGrid=           0.
 Symmetry not used in FoFCou.
 Leave Link  703 at Wed May 26 19:17:16 2021, MaxMem=   13107200 cpu:       1.2
 (Enter /programs/64bit/g09/g09-gfortran/bin/l716.exe)
 Dipole        =-2.28784936D-02-6.14624954D-02-2.42587946D-03
 -------------------------------------------------------------------
 Center     Atomic                   Forces (Hartrees/Bohr)
 Number     Number              X              Y              Z
 -------------------------------------------------------------------
      1        6           0.001507316   -0.043732752    0.012235431
      2        6          -0.011227538    0.000580500    0.000416884
      3        1          -0.003213128    0.018451653   -0.007506088
      4        1          -0.002519465    0.001298133   -0.001016710
      5        1           0.012487517    0.013833215   -0.003132748
      6        1           0.002230940    0.007029867    0.006779978
      7        1           0.005192150   -0.001446368   -0.007133398
      8        1          -0.004457792    0.003985751   -0.000643348
 -------------------------------------------------------------------
 Cartesian Forces:  Max     0.043732752 RMS     0.011512452
 -----------------------------------------------------------------------------------------------
                       Internal Coordinate Forces (Hartree/Bohr or radian)
  Cent   Atom   N1       Length/X         N2         Alpha/Y        N3         Beta/Z          J
 -----------------------------------------------------------------------------------------------
      1  C 
      2  C        1  -0.000580(     1)
      3  H        1  -0.000321(     2)      2   0.016862(     8)
      4  H        1  -0.000210(     3)      2   0.002312(     9)      3   0.005639(    14)     0
      5  H        1   0.000085(     4)      2   0.006971(    10)      3   0.035049(    15)     0
      6  H        2  -0.000125(     5)      1   0.014715(    11)      3   0.005051(    16)     0
      7  H        2   0.000039(     6)      1  -0.016314(    12)      6   0.007965(    17)     0
      8  H        2   0.000445(     7)      1  -0.001872(    13)      6   0.011173(    18)     0
 -----------------------------------------------------------------------------------------------
 Internal  Forces:  Max     0.035048566 RMS     0.011301657
 Force constants in Cartesian coordinates: 
                1             2             3             4             5 
      1  0.702542D+00
      2 -0.536987D-01  0.586531D+00
      3  0.563835D-02 -0.153574D-01  0.622631D+00
      4 -0.931478D-01  0.294231D-02  0.168973D-02  0.635306D+00
      5  0.292926D-02 -0.879448D-01  0.823046D-02  0.242001D-01  0.628868D+00
      6 -0.225192D-02 -0.161003D-02 -0.284282D+00  0.271131D-01 -0.527380D-02
      7 -0.307172D+00  0.435658D-02  0.847270D-01  0.955897D-02  0.183370D-03
      8  0.149295D-01 -0.734037D-01  0.709698D-02  0.674041D-03  0.239624D-02
      9  0.961325D-01  0.113979D-01 -0.122251D+00  0.250085D-01  0.479740D-03
     10 -0.927494D-01 -0.669634D-01 -0.213617D-01  0.102426D-02  0.187718D-02
     11 -0.680190D-01 -0.290937D+00 -0.623003D-01  0.178731D-02  0.613133D-02
     12 -0.239590D-01 -0.695749D-01 -0.817081D-01 -0.762183D-02 -0.242938D-01
     13 -0.223955D+00  0.112658D+00 -0.706934D-01  0.718386D-02 -0.401465D-02
     14  0.103153D+00 -0.152424D+00  0.623303D-01 -0.443258D-02  0.598368D-02
     15 -0.778119D-01  0.735344D-01 -0.134390D+00 -0.190764D-01  0.155836D-01
     16  0.738906D-02 -0.146331D-03  0.000000D+00 -0.315553D+00  0.381754D-02
     17 -0.370565D-03  0.804917D-03  0.000000D+00  0.166079D-02 -0.711687D-01
     18  0.255230D-01 -0.558682D-03  0.000000D+00  0.829929D-01 -0.474488D-02
     19  0.282983D-02 -0.378710D-02  0.000000D+00 -0.101816D+00  0.729443D-01
     20 -0.354526D-02  0.956785D-02  0.000000D+00  0.763403D-01 -0.259720D+00
     21 -0.945253D-02  0.222958D-01  0.000000D+00 -0.469705D-01  0.101493D+00
     22  0.426343D-02  0.463841D-02  0.000000D+00 -0.142556D+00 -0.101937D+00
     23  0.462208D-02  0.780538D-02  0.000000D+00 -0.103172D+00 -0.224546D+00
     24 -0.138185D-01 -0.201271D-01  0.000000D+00 -0.631355D-01 -0.914745D-01
                6             7             8             9            10 
      6  0.639264D+00
      7  0.000000D+00  0.308146D+00
      8  0.000000D+00 -0.201895D-02  0.540770D-01
      9  0.000000D+00 -0.935843D-01 -0.528206D-02  0.990780D-01
     10  0.000000D+00 -0.412215D-02 -0.312113D-01 -0.107845D-01  0.824284D-01
     11  0.000000D+00  0.745186D-03  0.583575D-02  0.194958D-02  0.718258D-01
     12  0.000000D+00  0.197238D-02  0.142345D-01  0.516023D-02  0.218792D-01
     13  0.000000D+00 -0.641080D-02  0.176775D-01 -0.167722D-01  0.134651D-01
     14  0.000000D+00 -0.326619D-02  0.110973D-01 -0.854513D-02  0.244741D-01
     15  0.000000D+00  0.688498D-02 -0.160495D-01  0.180127D-01  0.102670D-01
     16  0.698752D-01  0.000000D+00  0.115657D-04  0.000000D+00  0.105518D-04
     17 -0.383212D-02  0.000000D+00  0.597976D-03  0.000000D+00  0.545555D-03
     18 -0.982538D-01  0.000000D+00  0.000000D+00  0.000000D+00  0.000000D+00
     19 -0.404819D-01  0.000000D+00 -0.584447D-03  0.000000D+00 -0.533211D-03
     20  0.902764D-01  0.000000D+00 -0.244005D-03  0.000000D+00 -0.222614D-03
     21 -0.126590D+00  0.000000D+00  0.000000D+00  0.000000D+00  0.000000D+00
     22 -0.542545D-01  0.000000D+00  0.522108D-03  0.000000D+00  0.476337D-03
     23 -0.795605D-01  0.000000D+00 -0.356561D-03  0.000000D+00 -0.325303D-03
     24 -0.130138D+00  0.000000D+00  0.000000D+00  0.000000D+00  0.000000D+00
               11            12            13            14            15 
     11  0.290595D+00
     12  0.653046D-01  0.702600D-01
     13 -0.635385D-02  0.772926D-02  0.209685D+00
     14 -0.116264D-01  0.143296D-01 -0.119969D+00  0.146967D+00
     15 -0.495384D-02  0.628791D-02  0.797363D-01 -0.681147D-01  0.110089D+00
     16 -0.330392D-05  0.000000D+00 -0.731120D-05 -0.931790D-05  0.000000D+00
     17 -0.170821D-03  0.000000D+00 -0.378007D-03 -0.481758D-03  0.000000D+00
     18  0.000000D+00  0.000000D+00  0.000000D+00  0.000000D+00  0.000000D+00
     19  0.166956D-03  0.000000D+00  0.369454D-03  0.470857D-03  0.000000D+00
     20  0.697036D-04  0.000000D+00  0.154246D-03  0.196582D-03  0.000000D+00
     21  0.000000D+00  0.000000D+00  0.000000D+00  0.000000D+00  0.000000D+00
     22 -0.149148D-03  0.000000D+00 -0.330047D-03 -0.420635D-03  0.000000D+00
     23  0.101857D-03  0.000000D+00  0.225397D-03  0.287262D-03  0.000000D+00
     24  0.000000D+00  0.000000D+00  0.000000D+00  0.000000D+00  0.000000D+00
               16            17            18            19            20 
     16  0.317862D+00
     17 -0.485094D-02  0.545597D-01
     18 -0.748131D-01  0.228735D-02  0.813173D-01
     19 -0.428928D-02  0.289625D-01 -0.167346D-01  0.906211D-01
     20 -0.849341D-03  0.594294D-02 -0.332757D-02 -0.823628D-01  0.257457D+00
     21  0.188268D-02 -0.122965D-01  0.731748D-02  0.442734D-01 -0.981549D-01
     22 -0.541170D-02 -0.255693D-01 -0.169681D-01  0.128182D-01  0.104855D-01
     23  0.203013D-02  0.991581D-02  0.634378D-02 -0.158103D-01 -0.132702D-01
     24  0.305518D-02  0.138413D-01  0.961904D-02  0.129431D-01  0.112060D-01
               21            22            23            24 
     21  0.107669D+00
     22  0.102669D-01  0.130740D+00
     23 -0.133376D-01  0.112430D+00  0.220062D+00
     24  0.116034D-01  0.609557D-01  0.865543D-01  0.108916D+00
 Force constants in internal coordinates: 
                1             2             3             4             5 
      1  0.284282D+00
      2  0.000000D+00  0.343917D+00
      3  0.000000D+00  0.000000D+00  0.331147D+00
      4  0.000000D+00  0.000000D+00  0.000000D+00  0.348382D+00
      5  0.000000D+00  0.000000D+00  0.000000D+00  0.000000D+00  0.339636D+00
      6  0.000000D+00  0.000000D+00  0.000000D+00  0.000000D+00  0.000000D+00
      7  0.000000D+00  0.000000D+00  0.000000D+00  0.000000D+00  0.000000D+00
      8  0.000000D+00  0.000000D+00  0.000000D+00  0.000000D+00  0.000000D+00
      9  0.000000D+00  0.000000D+00  0.000000D+00  0.000000D+00  0.000000D+00
     10  0.000000D+00  0.000000D+00  0.000000D+00  0.000000D+00  0.000000D+00
     11  0.000000D+00  0.000000D+00  0.000000D+00  0.000000D+00  0.000000D+00
     12  0.000000D+00  0.000000D+00  0.000000D+00  0.000000D+00  0.000000D+00
     13  0.000000D+00  0.000000D+00  0.000000D+00  0.000000D+00  0.000000D+00
     14  0.000000D+00  0.000000D+00  0.000000D+00  0.000000D+00  0.000000D+00
     15  0.000000D+00  0.000000D+00  0.000000D+00  0.000000D+00  0.000000D+00
     16  0.000000D+00  0.000000D+00  0.000000D+00  0.000000D+00  0.000000D+00
     17  0.000000D+00  0.000000D+00  0.000000D+00  0.000000D+00  0.000000D+00
     18  0.000000D+00  0.000000D+00  0.000000D+00  0.000000D+00  0.000000D+00
                6             7             8             9            10 
      6  0.340925D+00
      7  0.000000D+00  0.344032D+00
      8  0.000000D+00  0.000000D+00  0.270413D+00
      9  0.000000D+00  0.000000D+00  0.246618D-01  0.227189D+00
     10  0.000000D+00  0.000000D+00  0.896594D-01  0.305552D-01  0.271505D+00
     11  0.000000D+00  0.000000D+00  0.000000D+00  0.000000D+00  0.000000D+00
     12  0.000000D+00  0.000000D+00  0.000000D+00  0.000000D+00  0.000000D+00
     13  0.000000D+00  0.000000D+00  0.000000D+00  0.000000D+00  0.000000D+00
     14  0.000000D+00  0.000000D+00 -0.485862D-01  0.595835D-02  0.512356D-01
     15  0.000000D+00  0.000000D+00  0.712266D-01 -0.653353D-01  0.185192D-01
     16  0.000000D+00  0.000000D+00  0.000000D+00  0.000000D+00  0.000000D+00
     17  0.000000D+00  0.000000D+00  0.000000D+00  0.000000D+00  0.000000D+00
     18  0.000000D+00  0.000000D+00  0.000000D+00  0.000000D+00  0.000000D+00
               11            12            13            14            15 
     11  0.256488D+00
     12  0.360504D-01  0.248950D+00
     13  0.470706D-01  0.600018D-01  0.261613D+00
     14  0.000000D+00  0.000000D+00  0.000000D+00  0.244877D+00
     15  0.000000D+00  0.000000D+00  0.000000D+00 -0.115014D+00  0.193125D+00
     16  0.240987D-04 -0.348242D-04  0.752409D-04  0.690000D-02  0.690000D-02
     17 -0.679316D-01  0.130465D-01  0.693260D-01  0.230000D-02  0.230000D-02
     18  0.715695D-01 -0.687941D-01 -0.650892D-02  0.230000D-02  0.230000D-02
               16            17            18 
     16  0.207189D-01
     17  0.682982D-02  0.201066D+00
     18  0.678605D-02 -0.858379D-01  0.193263D+00
 Leave Link  716 at Wed May 26 19:17:16 2021, MaxMem=   13107200 cpu:       0.0
 (Enter /programs/64bit/g09/g09-gfortran/bin/l103.exe)

 GradGradGradGradGradGradGradGradGradGradGradGradGradGradGradGradGradGrad
 Berny optimization.
 Search for a local minimum.
 Step number   1 out of a maximum of    2
 All quantities printed in internal units (Hartrees-Bohrs-Radians)
 Second derivative matrix not updated -- first step.
 The second derivative matrix:
                          d1        a1        t1        d2        a2
           d1           0.28428
           a1           0.00000   0.27041
           t1           0.00000  -0.04859   0.24488
           d2           0.00000   0.00000  -0.00000   0.34392
           a2           0.00000   0.02466   0.00596   0.00000   0.22719
           t2           0.00000   0.07123  -0.11501   0.00000  -0.06534
           d3          -0.00000  -0.00000  -0.00000   0.00000  -0.00000
           d4          -0.00000  -0.00000   0.00000  -0.00000   0.00000
           a3           0.00000   0.08966   0.05124   0.00000   0.03056
           d5          -0.00000   0.00000   0.00000   0.00000  -0.00000
           a4           0.00000   0.00000  -0.00000   0.00000   0.00000
           t3           0.00000   0.00000   0.00690   0.00000   0.00000
           d6           0.00000   0.00000   0.00000   0.00000   0.00000
           a5           0.00000   0.00000  -0.00000   0.00000  -0.00000
           t4           0.00000   0.00000   0.00230   0.00000   0.00000
           d7           0.00000   0.00000  -0.00000   0.00000   0.00000
           a6           0.00000   0.00000   0.00000   0.00000  -0.00000
           t5           0.00000   0.00000   0.00230   0.00000   0.00000
                          t2        d3        d4        a3        d5
           t2           0.19313
           d3           0.00000   0.33115
           d4          -0.00000  -0.00000   0.34838
           a3           0.01852  -0.00000   0.00000   0.27150
           d5           0.00000   0.00000   0.00000   0.00000   0.33964
           a4           0.00000  -0.00000  -0.00000   0.00000   0.00000
           t3           0.00690  -0.00000  -0.00000   0.00000   0.00000
           d6           0.00000  -0.00000   0.00000   0.00000   0.00000
           a5          -0.00000   0.00000   0.00000  -0.00000   0.00000
           t4           0.00230  -0.00000   0.00000   0.00000   0.00000
           d7          -0.00000  -0.00000  -0.00000   0.00000   0.00000
           a6           0.00000   0.00000   0.00000  -0.00000   0.00000
           t5           0.00230  -0.00000   0.00000  -0.00000   0.00000
                          a4        t3        d6        a5        t4
           a4           0.25649
           t3           0.00002   0.02072
           d6          -0.00000  -0.00000   0.34093
           a5           0.03605  -0.00003  -0.00000   0.24895
           t4          -0.06793   0.00683  -0.00000   0.01305   0.20107
           d7           0.00000  -0.00000   0.00000   0.00000  -0.00000
           a6           0.04707   0.00008   0.00000   0.06000   0.06933
           t5           0.07157   0.00679   0.00000  -0.06879  -0.08584
                          d7        a6        t5
           d7           0.34403
           a6          -0.00000   0.26161
           t5          -0.00000  -0.00651   0.19326
     Eigenvalues --- 1000.000001000.000001000.000001000.000001000.00000
     Eigenvalues --- 1000.000001000.000001000.000001000.000001000.00000
     Eigenvalues --- 1000.000001000.000001000.000001000.000001000.00000
     Eigenvalues --- 1000.000001000.000001000.00000
 Angle between quadratic step and forces=  90.00 degrees.
 Linear search not attempted -- first point.
 Variable       Old X    -DE/DX   Delta X   Delta X   Delta X     New X
                                 (Linear)    (Quad)   (Total)
    d1        2.91212  -0.00058   0.00000   0.00000   0.00000   2.91212
    a1        1.93589   0.01686   0.00000   0.00000   0.00000   1.93589
    t1        1.87424   0.00564   0.00000   0.00000   0.00000   1.87424
    d2        2.06674  -0.00032   0.00000   0.00000   0.00000   2.06674
    a2        1.82885   0.00231   0.00000   0.00000   0.00000   1.82885
    t2       -2.47629   0.03505   0.00000   0.00000   0.00000  -2.47629
    d3        2.08851  -0.00021   0.00000   0.00000   0.00000   2.08851
    d4        2.05938   0.00008   0.00000   0.00000   0.00000   2.05938
    a3        1.98505   0.00697   0.00000   0.00000   0.00000   1.98505
    d5        2.07392  -0.00013   0.00000   0.00000   0.00000   2.07392
    a4        1.85281   0.01471   0.00000   0.00000   0.00000   1.85281
    t3        3.12225   0.00505   0.00000   0.00000   0.00000   3.12225
    d6        2.07174   0.00004   0.00000   0.00000   0.00000   2.07174
    a5        2.00313  -0.01631   0.00000   0.00000   0.00000   2.00313
    t4        1.98563   0.00796   0.00000   0.00000   0.00000   1.98563
    d7        2.06655   0.00044   0.00000   0.00000   0.00000   2.06655
    a6        1.99383  -0.00187   0.00000   0.00000   0.00000   1.99383
    t5       -2.15063   0.01117   0.00000   0.00000   0.00000  -2.15063
         Item               Value     Threshold  Converged?
 Maximum Force            0.000000     0.000450     YES
 RMS     Force            0.000000     0.000300     YES
 Maximum Displacement     0.000000     0.001800     YES
 RMS     Displacement     0.000000     0.001200     YES
 Predicted change in Energy=-0.000000D+00
 Optimization completed.
    -- Stationary point found.
                       ----------------------------
                       !   Optimized Parameters   !
                       ! (Angstroms and Degrees)  !
 ----------------------                            ----------------------
 !      Name          Value   Derivative information (Atomic Units)     !
 ------------------------------------------------------------------------
 !       d1          1.541    -DE/DX =   -0.0006                        !
 !       a1        110.9183   -DE/DX =    0.0169                        !
 !       t1        107.386    -DE/DX =    0.0056                        !
 !       d2          1.0937   -DE/DX =   -0.0003                        !
 !       a2        104.7855   -DE/DX =    0.0023                        !
 !       t2       -141.8808   -DE/DX =    0.035                         !
 !       d3          1.1052   -DE/DX =   -0.0002                        !
 !       d4          1.0898   -DE/DX =    0.0001                        !
 !       a3        113.7353   -DE/DX =    0.007                         !
 !       d5          1.0975   -DE/DX =   -0.0001                        !
 !       a4        106.158    -DE/DX =    0.0147                        !
 !       t3        178.892    -DE/DX =    0.0051                        !
 !       d6          1.0963   -DE/DX =    0.0                           !
 !       a5        114.7707   -DE/DX =   -0.0163                        !
 !       t4        113.7685   -DE/DX =    0.008                         !
 !       d7          1.0936   -DE/DX =    0.0004                        !
 !       a6        114.2381   -DE/DX =   -0.0019                        !
 !       t5       -123.2221   -DE/DX =    0.0112                        !
 ------------------------------------------------------------------------
 GradGradGradGradGradGradGradGradGradGradGradGradGradGradGradGradGradGrad

 Leave Link  103 at Wed May 26 19:17:16 2021, MaxMem=   13107200 cpu:       0.0
 (Enter /programs/64bit/g09/g09-gfortran/bin/l9999.exe)
 1\1\GINC-MOLMOD\Force\RB3LYP\6-31+G(d,p)\C2H6\OSPITE\26-May-2021\1\\#p
  b3lyp/6-31+g(d,p) force nosym\\c2h6 molecule\\0,1\C\C,1,d1\H,1,d2,2,a
 1\H,1,d3,2,a2,3,t1,0\H,1,d4,2,a3,3,t2,0\H,2,d5,1,a4,3,t3,0\H,2,d6,1,a5
 ,6,t4,0\H,2,d7,1,a6,6,t5,0\\d1=1.54102662\a1=110.91825878\t1=107.38604
 52\d2=1.09367219\a2=104.7855094\t2=-141.88081988\d3=1.10518956\d4=1.08
 977904\a3=113.73525038\d5=1.09746898\a4=106.15803874\t3=178.89195396\d
 6=1.09631848\a5=114.770721\t4=113.76847899\d7=1.09357126\a6=114.238088
 73\t5=-123.22208708\\Version=EM64L-G09RevA.02\HF=-79.8318581\RMSD=5.31
 0e-09\RMSF=1.151e-02\Dipole=-0.0228785,-0.0614625,-0.0024259\Quadrupol
 e=0.4368199,-0.0598705,-0.3769494,-0.1085824,0.1367148,-0.1075778\PG=C
 01 [X(C2H6)]\\@


 A DANDELION FROM A LOVER MEANS MORE THAN AN ORCHID FROM A FRIEND.
 Job cpu time:  0 days  0 hours  0 minutes  7.5 seconds.
 File lengths (MBytes):  RWF=      5 Int=      0 D2E=      0 Chk=      1 Scr=      1
 Normal termination of Gaussian 09 at Wed May 26 19:17:16 2021.
