 Entering Gaussian System, Link 0=g09
 Input=c2h6_031.com
 Output=c2h6_031.log
 Initial command:
 /programs/64bit/g09/g09-gfortran/bin/l1.exe /data/scratch/Gau-6629.inp -scrdir=/data/scratch/
 Entering Link 1 = /programs/64bit/g09/g09-gfortran/bin/l1.exe PID=      6630.
  
 Copyright (c) 1988,1990,1992,1993,1995,1998,2003,2009, Gaussian, Inc.
                  All Rights Reserved.
  
 This is part of the Gaussian(R) 09 program.  It is based on
 the Gaussian(R) 03 system (copyright 2003, Gaussian, Inc.),
 the Gaussian(R) 98 system (copyright 1998, Gaussian, Inc.),
 the Gaussian(R) 94 system (copyright 1995, Gaussian, Inc.),
 the Gaussian 92(TM) system (copyright 1992, Gaussian, Inc.),
 the Gaussian 90(TM) system (copyright 1990, Gaussian, Inc.),
 the Gaussian 88(TM) system (copyright 1988, Gaussian, Inc.),
 the Gaussian 86(TM) system (copyright 1986, Carnegie Mellon
 University), and the Gaussian 82(TM) system (copyright 1983,
 Carnegie Mellon University). Gaussian is a federally registered
 trademark of Gaussian, Inc.
  
 This software contains proprietary and confidential information,
 including trade secrets, belonging to Gaussian, Inc.
  
 This software is provided under written license and may be
 used, copied, transmitted, or stored only in accord with that
 written license.
  
 The following legend is applicable only to US Government
 contracts under FAR:
  
                    RESTRICTED RIGHTS LEGEND
  
 Use, reproduction and disclosure by the US Government is
 subject to restrictions as set forth in subparagraphs (a)
 and (c) of the Commercial Computer Software - Restricted
 Rights clause in FAR 52.227-19.
  
 Gaussian, Inc.
 340 Quinnipiac St., Bldg. 40, Wallingford CT 06492
  
  
 ---------------------------------------------------------------
 Warning -- This program may not be used in any manner that
 competes with the business of Gaussian, Inc. or will provide
 assistance to any competitor of Gaussian, Inc.  The licensee
 of this program is prohibited from giving any competitor of
 Gaussian, Inc. access to this program.  By using this program,
 the user acknowledges that Gaussian, Inc. is engaged in the
 business of creating and licensing software in the field of
 computational chemistry and represents and warrants to the
 licensee that it is not a competitor of Gaussian, Inc. and that
 it will not use this program in any manner prohibited above.
 ---------------------------------------------------------------
  

 Cite this work as:
 Gaussian 09, Revision A.02,
 M. J. Frisch, G. W. Trucks, H. B. Schlegel, G. E. Scuseria, 
 M. A. Robb, J. R. Cheeseman, G. Scalmani, V. Barone, B. Mennucci, 
 G. A. Petersson, H. Nakatsuji, M. Caricato, X. Li, H. P. Hratchian, 
 A. F. Izmaylov, J. Bloino, G. Zheng, J. L. Sonnenberg, M. Hada, 
 M. Ehara, K. Toyota, R. Fukuda, J. Hasegawa, M. Ishida, T. Nakajima, 
 Y. Honda, O. Kitao, H. Nakai, T. Vreven, J. A. Montgomery, Jr., 
 J. E. Peralta, F. Ogliaro, M. Bearpark, J. J. Heyd, E. Brothers, 
 K. N. Kudin, V. N. Staroverov, R. Kobayashi, J. Normand, 
 K. Raghavachari, A. Rendell, J. C. Burant, S. S. Iyengar, J. Tomasi, 
 M. Cossi, N. Rega, J. M. Millam, M. Klene, J. E. Knox, J. B. Cross, 
 V. Bakken, C. Adamo, J. Jaramillo, R. Gomperts, R. E. Stratmann, 
 O. Yazyev, A. J. Austin, R. Cammi, C. Pomelli, J. W. Ochterski, 
 R. L. Martin, K. Morokuma, V. G. Zakrzewski, G. A. Voth, 
 P. Salvador, J. J. Dannenberg, S. Dapprich, A. D. Daniels, 
 O. Farkas, J. B. Foresman, J. V. Ortiz, J. Cioslowski, 
 and D. J. Fox, Gaussian, Inc., Wallingford CT, 2009.
 
 ******************************************
 Gaussian 09:  EM64L-G09RevA.02 11-Jun-2009
                26-May-2021 
 ******************************************
 %chk=c2h6_031.chk
 %mem=100MB
 --------------------------------
 #p b3lyp/6-31+g(d,p) force nosym
 --------------------------------
 1/10=7,30=1,38=1/1,3;
 2/12=2,15=1,17=6,18=5,40=1/2;
 3/5=1,6=6,7=111,11=2,16=1,25=1,30=1,71=1,74=-5/1,2,3;
 4//1;
 5/5=2,38=5/2;
 6/7=2,8=2,9=2,10=2,28=1/1;
 7/29=1,30=1/1,2,3,16;
 1/10=7,30=1/3;
 99//99;
 Leave Link    1 at Wed May 26 19:12:56 2021, MaxMem=   13107200 cpu:       0.0
 (Enter /programs/64bit/g09/g09-gfortran/bin/l101.exe)
 -------------
 c2h6 molecule
 -------------
 Symbolic Z-matrix:
 Charge =  0 Multiplicity = 1
 C1
 C2                   1    d1
 H3                   1    d2       2    a1
 H4                   1    d3       2    a2       3    t1       0
 H5                   1    d4       2    a3       3    t2       0
 H6                   2    d5       1    a4       3    t3       0
 H7                   2    d6       1    a5       6    t4       0
 H8                   2    d7       1    a6       6    t5       0
       Variables:
       Constants:
  d1                    1.72459                  
  a1                  150.06563                  
  t1                   98.74801                  
  d2                    1.09087                  
  a2                   88.29896                  
  t2                 -157.61042                  
  d3                    1.09247                  
  d4                    1.08533                  
  a3                   86.11721                  
  d5                    1.08771                  
  a4                   90.41867                  
  t3                  179.82927                  
  d6                    1.09277                  
  a5                   90.61331                  
  t4                  122.36923                  
  d7                    1.10319                  
  a6                  156.05183                  
  t5                 -120.00045                  
 
 NAtoms=      8 NQM=      8 NQMF=      0 NMic=      0 NMicF=      0 NTot=      8.
                    Isotopes and Nuclear Properties:
 (Nuclear quadrupole moments (NQMom) in fm**2, nuclear magnetic moments (NMagM)
  in nuclear magnetons)

  Atom         1           2           3           4           5           6           7           8
 IAtWgt=          12          12           1           1           1           1           1           1
 AtmWgt=  12.0000000  12.0000000   1.0078250   1.0078250   1.0078250   1.0078250   1.0078250   1.0078250
 NucSpn=           0           0           1           1           1           1           1           1
 AtZEff=   0.0000000   0.0000000   0.0000000   0.0000000   0.0000000   0.0000000   0.0000000   0.0000000
 NQMom=    0.0000000   0.0000000   0.0000000   0.0000000   0.0000000   0.0000000   0.0000000   0.0000000
 NMagM=    0.0000000   0.0000000   2.7928460   2.7928460   2.7928460   2.7928460   2.7928460   2.7928460
 Leave Link  101 at Wed May 26 19:12:56 2021, MaxMem=   13107200 cpu:       0.0
 (Enter /programs/64bit/g09/g09-gfortran/bin/l103.exe)

 GradGradGradGradGradGradGradGradGradGradGradGradGradGradGradGradGradGrad
 Berny optimization.
 Initialization pass.
                       ----------------------------
                       !    Initial Parameters    !
                       ! (Angstroms and Degrees)  !
 ----------------------                            ----------------------
 !      Name          Value   Derivative information (Atomic Units)     !
 ------------------------------------------------------------------------
 !       d1          1.7246   Frozen                                    !
 !       a1        150.0656   Frozen                                    !
 !       t1         98.748    Frozen                                    !
 !       d2          1.0909   Frozen                                    !
 !       a2         88.299    Frozen                                    !
 !       t2       -157.6104   Frozen                                    !
 !       d3          1.0925   Frozen                                    !
 !       d4          1.0853   Frozen                                    !
 !       a3         86.1172   Frozen                                    !
 !       d5          1.0877   Frozen                                    !
 !       a4         90.4187   Frozen                                    !
 !       t3        179.8293   Frozen                                    !
 !       d6          1.0928   Frozen                                    !
 !       a5         90.6133   Frozen                                    !
 !       t4        122.3692   Frozen                                    !
 !       d7          1.1032   Frozen                                    !
 !       a6        156.0518   Frozen                                    !
 !       t5       -120.0004   Frozen                                    !
 ------------------------------------------------------------------------
 Trust Radius=3.00D-01 FncErr=1.00D-07 GrdErr=1.00D-07
 Number of steps in this run=   2 maximum allowed number of steps=   2.
 GradGradGradGradGradGradGradGradGradGradGradGradGradGradGradGradGradGrad

 Leave Link  103 at Wed May 26 19:12:56 2021, MaxMem=   13107200 cpu:       0.0
 (Enter /programs/64bit/g09/g09-gfortran/bin/l202.exe)
                          Input orientation:                          
 ---------------------------------------------------------------------
 Center     Atomic      Atomic             Coordinates (Angstroms)
 Number     Number       Type             X           Y           Z
 ---------------------------------------------------------------------
      1          6           0        0.000000    0.000000    0.000000
      2          6           0        0.000000    0.000000    1.724587
      3          1           0        0.544353    0.000000   -0.945346
      4          1           0       -0.166080   -1.079288    0.032429
      5          1           0       -1.001213    0.412457    0.073494
      6          1           0       -1.087678    0.003241    1.732535
      7          1           0        0.582256   -0.924660    1.736284
      8          1           0        0.225055    0.387130    2.732802
 ---------------------------------------------------------------------
                    Distance matrix (angstroms):
                    1          2          3          4          5
     1  C    0.000000
     2  C    1.724587   0.000000
     3  H    1.090871   2.724860   0.000000
     4  H    1.092473   2.013912   1.620377   0.000000
     5  H    1.085333   1.974501   1.896557   1.710098   0.000000
     6  H    2.045662   1.087712   3.136013   2.216206   1.710950
     7  H    2.051512   1.092774   2.836824   1.867361   2.657090
     8  H    2.769247   1.103186   3.712222   3.097642   2.928531
                    6          7          8
     6  H    0.000000
     7  H    1.910418   0.000000
     8  H    1.694454   1.685656   0.000000
 Symmetry turned off by external request.
 Stoichiometry    C2H6
 Framework group  C1[X(C2H6)]
 Deg. of freedom    18
 Full point group                 C1      NOp   1
 Rotational constants (GHZ):     97.3130091     17.2266250     16.3491062
 Leave Link  202 at Wed May 26 19:12:56 2021, MaxMem=   13107200 cpu:       0.0
 (Enter /programs/64bit/g09/g09-gfortran/bin/l301.exe)
 Standard basis: 6-31+G(d,p) (6D, 7F)
 Ernie: Thresh=  0.10000D-02 Tol=  0.10000D-05 Strict=F.
 Integral buffers will be    131072 words long.
 Raffenetti 2 integral format.
 Two-electron integral symmetry is turned off.
    68 basis functions,   106 primitive gaussians,    68 cartesian basis functions
     9 alpha electrons        9 beta electrons
       nuclear repulsion energy        40.7856374631 Hartrees.
 IExCor=  402 DFT=T Ex+Corr=B3LYP ExCW=0 ScaHFX=  0.200000
 ScaDFX=  0.800000  0.720000  1.000000  0.810000 ScalE2=  1.000000  1.000000
 IRadAn=      0 IRanWt=     -1 IRanGd=            0 ICorTp=0
 NAtoms=    8 NActive=    8 NUniq=    8 SFac= 7.50D-01 NAtFMM=   80 NAOKFM=F Big=F
 Leave Link  301 at Wed May 26 19:12:56 2021, MaxMem=   13107200 cpu:       0.0
 (Enter /programs/64bit/g09/g09-gfortran/bin/l302.exe)
 NPDir=0 NMtPBC=     1 NCelOv=     1 NCel=       1 NClECP=     1 NCelD=      1
         NCelK=      1 NCelE2=     1 NClLst=     1 CellRange=     0.0.
 One-electron integrals computed using PRISM.
 NBasis=    68 RedAO= T  NBF=    68
 NBsUse=    68 1.00D-06 NBFU=    68
 Precomputing XC quadrature grid using
 IXCGrd= 2 IRadAn=           0 IRanWt=          -1 IRanGd=           0 AccXCQ= 1.00D-10.
 NRdTot=     510 NPtTot=       65100 NUsed=       68787 NTot=       68819
 NSgBfM=    68    68    68    68    68 NAtAll=     8     8.
 Leave Link  302 at Wed May 26 19:12:56 2021, MaxMem=   13107200 cpu:       0.1
 (Enter /programs/64bit/g09/g09-gfortran/bin/l303.exe)
 DipDrv:  MaxL=1.
 Leave Link  303 at Wed May 26 19:12:56 2021, MaxMem=   13107200 cpu:       0.0
 (Enter /programs/64bit/g09/g09-gfortran/bin/l401.exe)
 Harris functional with IExCor=  402 diagonalized for initial guess.
 ExpMin= 4.38D-02 ExpMax= 3.05D+03 ExpMxC= 4.57D+02 IAcc=2 IRadAn=         0 AccDes= 0.00D+00
 HarFok:  IExCor=  402 AccDes= 0.00D+00 IRadAn=         0 IDoV= 1
 ScaDFX=  1.000000  1.000000  1.000000  1.000000
 FoFCou: FMM=F IPFlag=           0 FMFlag=      100000 FMFlg1=           0
         NFxFlg=           0 DoJE=T BraDBF=F KetDBF=T FulRan=T
         Omega=  0.000000  0.000000  1.000000  0.000000  0.000000 ICntrl=     500 IOpCl=  0
         NMat0=    1 NMatS0=    1 NMatT0=    0 NMatD0=    1 NMtDS0=    0 NMtDT0=    0
         I1Cent=           4 NGrid=           0.
 Symmetry not used in FoFCou.
 Harris En= -79.7664391999913    
 Leave Link  401 at Wed May 26 19:12:57 2021, MaxMem=   13107200 cpu:       0.8
 (Enter /programs/64bit/g09/g09-gfortran/bin/l502.exe)
 Closed shell SCF:
 Requested convergence on RMS density matrix=1.00D-08 within 128 cycles.
 Requested convergence on MAX density matrix=1.00D-06.
 Requested convergence on             energy=1.00D-06.
 No special actions if energy rises.
 Using DIIS extrapolation, IDIIS=  1040.
 Two-electron integral symmetry not used.
        68702 words used for storage of precomputed grid.
 Keep R1 ints in memory in canonical form, NReq=3743087.
 IEnd=      101552 IEndB=      101552 NGot=    13107200 MDV=    10273922
 LenX=    10273922 LenY=    10268857
 Symmetry not used in FoFDir.
 MinBra= 0 MaxBra= 2 Meth= 1.
 IRaf=       0 NMat=   1 IRICut=       1 DoRegI=T DoRafI=F ISym2E= 0 JSym2E=0.

 Cycle   1  Pass 1  IDiag  1:
 E= -79.6129564219627    
 DIIS: error= 3.55D-02 at cycle   1 NSaved=   1.
 NSaved= 1 IEnMin= 1 EnMin= -79.6129564219627     IErMin= 1 ErrMin= 3.55D-02
 ErrMax= 3.55D-02 EMaxC= 1.00D-01 BMatC= 9.28D-02 BMatP= 9.28D-02
 IDIUse=3 WtCom= 6.45D-01 WtEn= 3.55D-01
 Coeff-Com:  0.100D+01
 Coeff-En:   0.100D+01
 Coeff:      0.100D+01
 Gap=     0.318 Goal=   None    Shift=    0.000
 GapD=    0.318 DampG=1.000 DampE=0.500 DampFc=0.5000 IDamp=-1.
 Damping current iteration by 5.00D-01
 RMSDP=1.09D-02 MaxDP=1.29D-01              OVMax= 2.06D-01

 Cycle   2  Pass 1  IDiag  1:
 E= -79.6579176913269     Delta-E=       -0.044961269364 Rises=F Damp=T
 DIIS: error= 9.11D-03 at cycle   2 NSaved=   2.
 NSaved= 2 IEnMin= 2 EnMin= -79.6579176913269     IErMin= 2 ErrMin= 9.11D-03
 ErrMax= 9.11D-03 EMaxC= 1.00D-01 BMatC= 4.28D-03 BMatP= 9.28D-02
 IDIUse=3 WtCom= 9.09D-01 WtEn= 9.11D-02
 Coeff-Com:  0.103D+00 0.897D+00
 Coeff-En:   0.173D+00 0.827D+00
 Coeff:      0.109D+00 0.891D+00
 Gap=     0.303 Goal=   None    Shift=    0.000
 RMSDP=1.98D-03 MaxDP=2.79D-02 DE=-4.50D-02 OVMax= 1.16D-01

 Cycle   3  Pass 1  IDiag  1:
 E= -79.7199138487921     Delta-E=       -0.061996157465 Rises=F Damp=F
 DIIS: error= 2.05D-03 at cycle   3 NSaved=   3.
 NSaved= 3 IEnMin= 3 EnMin= -79.7199138487921     IErMin= 3 ErrMin= 2.05D-03
 ErrMax= 2.05D-03 EMaxC= 1.00D-01 BMatC= 3.22D-04 BMatP= 4.28D-03
 IDIUse=3 WtCom= 9.79D-01 WtEn= 2.05D-02
 Coeff-Com:  0.588D-02 0.182D+00 0.812D+00
 Coeff-En:   0.000D+00 0.000D+00 0.100D+01
 Coeff:      0.576D-02 0.178D+00 0.816D+00
 Gap=     0.292 Goal=   None    Shift=    0.000
 RMSDP=4.50D-04 MaxDP=4.52D-03 DE=-6.20D-02 OVMax= 6.45D-03

 Cycle   4  Pass 1  IDiag  1:
 E= -79.7202276228322     Delta-E=       -0.000313774040 Rises=F Damp=F
 DIIS: error= 4.38D-04 at cycle   4 NSaved=   4.
 NSaved= 4 IEnMin= 4 EnMin= -79.7202276228322     IErMin= 4 ErrMin= 4.38D-04
 ErrMax= 4.38D-04 EMaxC= 1.00D-01 BMatC= 1.54D-05 BMatP= 3.22D-04
 IDIUse=3 WtCom= 9.96D-01 WtEn= 4.38D-03
 Coeff-Com: -0.495D-03 0.419D-03 0.176D+00 0.824D+00
 Coeff-En:   0.000D+00 0.000D+00 0.000D+00 0.100D+01
 Coeff:     -0.493D-03 0.417D-03 0.175D+00 0.825D+00
 Gap=     0.292 Goal=   None    Shift=    0.000
 RMSDP=1.10D-04 MaxDP=1.32D-03 DE=-3.14D-04 OVMax= 1.71D-03

 Cycle   5  Pass 1  IDiag  1:
 E= -79.7202422457084     Delta-E=       -0.000014622876 Rises=F Damp=F
 DIIS: error= 1.23D-04 at cycle   5 NSaved=   5.
 NSaved= 5 IEnMin= 5 EnMin= -79.7202422457084     IErMin= 5 ErrMin= 1.23D-04
 ErrMax= 1.23D-04 EMaxC= 1.00D-01 BMatC= 1.56D-06 BMatP= 1.54D-05
 IDIUse=3 WtCom= 9.99D-01 WtEn= 1.23D-03
 Coeff-Com: -0.154D-03-0.130D-02 0.886D-01 0.448D+00 0.465D+00
 Coeff-En:   0.000D+00 0.000D+00 0.000D+00 0.000D+00 0.100D+01
 Coeff:     -0.153D-03-0.130D-02 0.885D-01 0.447D+00 0.466D+00
 Gap=     0.292 Goal=   None    Shift=    0.000
 RMSDP=1.99D-05 MaxDP=2.84D-04 DE=-1.46D-05 OVMax= 5.95D-04

 Cycle   6  Pass 1  IDiag  1:
 E= -79.7202438765921     Delta-E=       -0.000001630884 Rises=F Damp=F
 DIIS: error= 2.60D-05 at cycle   6 NSaved=   6.
 NSaved= 6 IEnMin= 6 EnMin= -79.7202438765921     IErMin= 6 ErrMin= 2.60D-05
 ErrMax= 2.60D-05 EMaxC= 1.00D-01 BMatC= 7.29D-08 BMatP= 1.56D-06
 IDIUse=1 WtCom= 1.00D+00 WtEn= 0.00D+00
 Coeff-Com:  0.143D-03-0.744D-03 0.102D-01 0.629D-01 0.194D+00 0.734D+00
 Coeff:      0.143D-03-0.744D-03 0.102D-01 0.629D-01 0.194D+00 0.734D+00
 Gap=     0.292 Goal=   None    Shift=    0.000
 RMSDP=4.00D-06 MaxDP=5.74D-05 DE=-1.63D-06 OVMax= 9.02D-05

 Cycle   7  Pass 1  IDiag  1:
 E= -79.7202439524880     Delta-E=       -0.000000075896 Rises=F Damp=F
 DIIS: error= 3.07D-06 at cycle   7 NSaved=   7.
 NSaved= 7 IEnMin= 7 EnMin= -79.7202439524880     IErMin= 7 ErrMin= 3.07D-06
 ErrMax= 3.07D-06 EMaxC= 1.00D-01 BMatC= 1.25D-09 BMatP= 7.29D-08
 IDIUse=1 WtCom= 1.00D+00 WtEn= 0.00D+00
 Coeff-Com:  0.706D-04-0.181D-03-0.118D-02-0.248D-02 0.345D-01 0.192D+00
 Coeff-Com:  0.777D+00
 Coeff:      0.706D-04-0.181D-03-0.118D-02-0.248D-02 0.345D-01 0.192D+00
 Coeff:      0.777D+00
 Gap=     0.292 Goal=   None    Shift=    0.000
 RMSDP=1.01D-06 MaxDP=1.05D-05 DE=-7.59D-08 OVMax= 1.44D-05

 Cycle   8  Pass 1  IDiag  1:
 E= -79.7202439539794     Delta-E=       -0.000000001491 Rises=F Damp=F
 DIIS: error= 6.34D-07 at cycle   8 NSaved=   8.
 NSaved= 8 IEnMin= 8 EnMin= -79.7202439539794     IErMin= 8 ErrMin= 6.34D-07
 ErrMax= 6.34D-07 EMaxC= 1.00D-01 BMatC= 2.54D-11 BMatP= 1.25D-09
 IDIUse=1 WtCom= 1.00D+00 WtEn= 0.00D+00
 Coeff-Com:  0.123D-04-0.190D-04-0.506D-03-0.204D-02 0.222D-02 0.193D-01
 Coeff-Com:  0.169D+00 0.813D+00
 Coeff:      0.123D-04-0.190D-04-0.506D-03-0.204D-02 0.222D-02 0.193D-01
 Coeff:      0.169D+00 0.813D+00
 Gap=     0.292 Goal=   None    Shift=    0.000
 RMSDP=1.52D-07 MaxDP=1.77D-06 DE=-1.49D-09 OVMax= 2.55D-06

 Cycle   9  Pass 1  IDiag  1:
 E= -79.7202439540115     Delta-E=       -0.000000000032 Rises=F Damp=F
 DIIS: error= 8.36D-08 at cycle   9 NSaved=   9.
 NSaved= 9 IEnMin= 9 EnMin= -79.7202439540115     IErMin= 9 ErrMin= 8.36D-08
 ErrMax= 8.36D-08 EMaxC= 1.00D-01 BMatC= 5.99D-13 BMatP= 2.54D-11
 IDIUse=1 WtCom= 1.00D+00 WtEn= 0.00D+00
 Coeff-Com: -0.418D-06 0.200D-05-0.434D-04-0.195D-03-0.556D-03-0.249D-02
 Coeff-Com:  0.611D-02 0.142D+00 0.856D+00
 Coeff:     -0.418D-06 0.200D-05-0.434D-04-0.195D-03-0.556D-03-0.249D-02
 Coeff:      0.611D-02 0.142D+00 0.856D+00
 Gap=     0.292 Goal=   None    Shift=    0.000
 RMSDP=2.03D-08 MaxDP=2.31D-07 DE=-3.21D-11 OVMax= 4.15D-07

 Cycle  10  Pass 1  IDiag  1:
 E= -79.7202439540124     Delta-E=       -0.000000000001 Rises=F Damp=F
 DIIS: error= 1.18D-08 at cycle  10 NSaved=  10.
 NSaved=10 IEnMin=10 EnMin= -79.7202439540124     IErMin=10 ErrMin= 1.18D-08
 ErrMax= 1.18D-08 EMaxC= 1.00D-01 BMatC= 1.29D-14 BMatP= 5.99D-13
 IDIUse=1 WtCom= 1.00D+00 WtEn= 0.00D+00
 Coeff-Com: -0.416D-06 0.674D-06-0.429D-06-0.181D-05-0.165D-03-0.915D-03
 Coeff-Com: -0.226D-02 0.912D-02 0.151D+00 0.843D+00
 Coeff:     -0.416D-06 0.674D-06-0.429D-06-0.181D-05-0.165D-03-0.915D-03
 Coeff:     -0.226D-02 0.912D-02 0.151D+00 0.843D+00
 Gap=     0.292 Goal=   None    Shift=    0.000
 RMSDP=3.20D-09 MaxDP=3.35D-08 DE=-9.09D-13 OVMax= 4.89D-08

 SCF Done:  E(RB3LYP) =  -79.7202439540     A.U. after   10 cycles
             Convg  =    0.3203D-08             -V/T =  2.0106
 KE= 7.888361910000D+01 PE=-2.649706827457D+02 EE= 6.558118222855D+01
 Leave Link  502 at Wed May 26 19:13:04 2021, MaxMem=   13107200 cpu:       6.6
 (Enter /programs/64bit/g09/g09-gfortran/bin/l601.exe)
 Copying SCF densities to generalized density rwf, IOpCl= 0 IROHF=0.

 **********************************************************************

            Population analysis using the SCF density.

 **********************************************************************

 Alpha  occ. eigenvalues --  -10.19890 -10.19805  -0.75308  -0.63106  -0.47224
 Alpha  occ. eigenvalues --   -0.43278  -0.36780  -0.32840  -0.28974
 Alpha virt. eigenvalues --    0.00266   0.00938   0.04970   0.05823   0.06606
 Alpha virt. eigenvalues --    0.07394   0.08677   0.10289   0.14730   0.15506
 Alpha virt. eigenvalues --    0.19831   0.21451   0.25454   0.29526   0.32859
 Alpha virt. eigenvalues --    0.64468   0.64737   0.65705   0.68969   0.74143
 Alpha virt. eigenvalues --    0.75700   0.87940   0.88982   0.95083   0.97239
 Alpha virt. eigenvalues --    1.03408   1.04332   1.05714   1.21288   1.30324
 Alpha virt. eigenvalues --    1.43481   1.54322   1.70010   1.80549   1.93161
 Alpha virt. eigenvalues --    1.96404   2.02790   2.10825   2.14629   2.17604
 Alpha virt. eigenvalues --    2.21782   2.26817   2.36439   2.39517   2.58095
 Alpha virt. eigenvalues --    2.66002   2.66486   2.70771   2.74041   2.87186
 Alpha virt. eigenvalues --    2.91583   3.22302   3.26457   3.36262   3.41618
 Alpha virt. eigenvalues --    3.50843   3.65430   4.26536   4.67784
          Condensed to atoms (all electrons):
              1          2          3          4          5          6
     1  C    5.243803   0.136534   0.356678   0.436047   0.428286  -0.087889
     2  C    0.136534   5.223862   0.016080  -0.087636  -0.080207   0.440846
     3  H    0.356678   0.016080   0.535133  -0.049999  -0.017254   0.003661
     4  H    0.436047  -0.087636  -0.049999   0.619294  -0.037566  -0.005706
     5  H    0.428286  -0.080207  -0.017254  -0.037566   0.563032  -0.016253
     6  H   -0.087889   0.440846   0.003661  -0.005706  -0.016253   0.592555
     7  H   -0.094614   0.441923   0.002258  -0.024628   0.005880  -0.015586
     8  H    0.035870   0.340277  -0.000809   0.003931   0.000640  -0.045458
              7          8
     1  C   -0.094614   0.035870
     2  C    0.441923   0.340277
     3  H    0.002258  -0.000809
     4  H   -0.024628   0.003931
     5  H    0.005880   0.000640
     6  H   -0.015586  -0.045458
     7  H    0.580658  -0.041167
     8  H   -0.041167   0.553387
 Mulliken atomic charges:
              1
     1  C   -0.454715
     2  C   -0.431679
     3  H    0.154252
     4  H    0.146263
     5  H    0.153442
     6  H    0.133831
     7  H    0.145277
     8  H    0.153329
 Sum of Mulliken atomic charges =  -0.00000
 Mulliken charges with hydrogens summed into heavy atoms:
              1
     1  C   -0.000758
     2  C    0.000758
 Sum of Mulliken charges with hydrogens summed into heavy atoms =  -0.00000
 Electronic spatial extent (au):  <R**2>=            168.4175
 Charge=             -0.0000 electrons
 Dipole moment (field-independent basis, Debye):
    X=             -0.2617    Y=             -0.5367    Z=             -0.0199  Tot=              0.5975
 Quadrupole moment (field-independent basis, Debye-Ang):
   XX=            -15.4549   YY=            -16.3895   ZZ=            -14.7125
   XY=             -1.0486   XZ=             -0.7342   YZ=              0.1829
 Traceless Quadrupole moment (field-independent basis, Debye-Ang):
   XX=              0.0641   YY=             -0.8705   ZZ=              0.8065
   XY=             -1.0486   XZ=             -0.7342   YZ=              0.1829
 Octapole moment (field-independent basis, Debye-Ang**2):
  XXX=              1.0382  YYY=              1.7827  ZZZ=            -38.3570  XYY=              0.8911
  XXY=              0.9686  XXZ=            -13.2694  XZZ=              1.1927  YZZ=              1.3931
  YYZ=            -14.8399  XYZ=             -1.1368
 Hexadecapole moment (field-independent basis, Debye-Ang**3):
 XXXX=            -31.0149 YYYY=            -30.7747 ZZZZ=           -170.6023 XXXY=             -0.1783
 XXXZ=              0.2926 YYYX=              0.1726 YYYZ=              1.0722 ZZZX=              1.9650
 ZZZY=              4.6608 XXYY=            -10.5282 XXZZ=            -36.1485 YYZZ=            -39.2045
 XXYZ=              0.5099 YYXZ=              0.8936 ZZXY=             -1.5075
 N-N= 4.078563746312D+01 E-N=-2.649706823637D+02  KE= 7.888361910000D+01
 No NMR shielding tensors so no spin-rotation constants.
 Leave Link  601 at Wed May 26 19:13:04 2021, MaxMem=   13107200 cpu:       0.1
 (Enter /programs/64bit/g09/g09-gfortran/bin/l701.exe)
 Compute integral first derivatives.
 ... and contract with generalized density number  0.
 Leave Link  701 at Wed May 26 19:13:04 2021, MaxMem=   13107200 cpu:       0.1
 (Enter /programs/64bit/g09/g09-gfortran/bin/l702.exe)
 L702 exits ... SP integral derivatives will be done elsewhere.
 Leave Link  702 at Wed May 26 19:13:04 2021, MaxMem=   13107200 cpu:       0.0
 (Enter /programs/64bit/g09/g09-gfortran/bin/l703.exe)
 Compute integral first derivatives, UseDBF=F ICtDFT=           0.
 Integral derivatives from FoFDir, PRISM(SPDF).
 Calling FoFJK, ICntrl=      2127 FMM=F ISym2X=0 I1Cent= 0 IOpClX= 0 NMat=1 NMatS=1 NMatT=0.
 FoFCou: FMM=F IPFlag=           0 FMFlag=      100000 FMFlg1=         800
         NFxFlg=           0 DoJE=F BraDBF=F KetDBF=F FulRan=T
         Omega=  0.000000  0.000000  1.000000  0.000000  0.000000 ICntrl=    2127 IOpCl=  0
         NMat0=    1 NMatS0=    1 NMatT0=    0 NMatD0=    1 NMtDS0=    0 NMtDT0=    0
         I1Cent=           0 NGrid=           0.
 Symmetry not used in FoFCou.
 Leave Link  703 at Wed May 26 19:13:06 2021, MaxMem=   13107200 cpu:       1.4
 (Enter /programs/64bit/g09/g09-gfortran/bin/l716.exe)
 Dipole        =-1.02967117D-01-2.11160758D-01-7.83354125D-03
 -------------------------------------------------------------------
 Center     Atomic                   Forces (Hartrees/Bohr)
 Number     Number              X              Y              Z
 -------------------------------------------------------------------
      1        6          -0.034977835   -0.016712595    0.036415078
      2        6           0.022201508   -0.025884266   -0.012294711
      3        1           0.019816537    0.034512846    0.009695138
      4        1          -0.008682576   -0.001784385   -0.005881174
      5        1           0.000576376    0.008924864   -0.042665689
      6        1           0.000151899   -0.023501694    0.013242332
      7        1          -0.020400166   -0.012516833    0.020907601
      8        1           0.021314256    0.036962063   -0.019418574
 -------------------------------------------------------------------
 Cartesian Forces:  Max     0.042665689 RMS     0.022144848
 -----------------------------------------------------------------------------------------------
                       Internal Coordinate Forces (Hartree/Bohr or radian)
  Cent   Atom   N1       Length/X         N2         Alpha/Y        N3         Beta/Z          J
 -----------------------------------------------------------------------------------------------
      1  C 
      2  C        1   0.002437(     1)
      3  H        1   0.001487(     2)      2  -0.045374(     8)
      4  H        1   0.002908(     3)      2   0.012325(     9)      3   0.017149(    14)     0
      5  H        1  -0.000029(     4)      2   0.087704(    10)      3   0.017335(    15)     0
      6  H        2  -0.000125(     5)      1   0.027222(    11)      3  -0.000987(    16)     0
      7  H        2  -0.000055(     6)      1   0.043179(    12)      6  -0.049419(    17)     0
      8  H        2  -0.000428(     7)      1  -0.097723(    13)      6   0.000127(    18)     0
 -----------------------------------------------------------------------------------------------
 Internal  Forces:  Max     0.097723437 RMS     0.037351637
 Force constants in Cartesian coordinates: 
                1             2             3             4             5 
      1  0.641463D+00
      2 -0.596388D-01  0.591583D+00
      3 -0.140925D+00 -0.141970D-01  0.627886D+00
      4 -0.968816D-01 -0.406521D-02  0.122288D-01  0.678545D+00
      5 -0.637107D-02 -0.899581D-01  0.139005D-01 -0.912887D-01  0.554185D+00
      6 -0.517052D-02 -0.956552D-02 -0.168761D+00  0.501400D-01  0.859492D-01
      7 -0.164250D+00  0.121384D-01  0.861872D-01  0.226085D-01  0.637830D-03
      8  0.245307D-01 -0.862553D-01 -0.116416D-01 -0.194040D-02  0.108778D-01
      9  0.105302D+00  0.698958D-02 -0.297494D+00  0.130185D-01  0.367278D-03
     10 -0.743596D-01 -0.578333D-01  0.205474D-01  0.554508D-03 -0.231363D-03
     11 -0.410959D-01 -0.336401D+00  0.513749D-02 -0.183205D-03 -0.675406D-03
     12  0.197641D-01 -0.512265D-03 -0.690731D-01 -0.325749D-02 -0.236632D-01
     13 -0.321906D+00  0.102532D+00  0.219615D-01 -0.221436D-03  0.237352D-02
     14  0.740487D-01 -0.106062D+00  0.680069D-02  0.338076D-02  0.408742D-02
     15  0.158586D-01  0.771972D-02 -0.925586D-01 -0.219899D-01  0.939549D-02
     16  0.172111D-03  0.429180D-05  0.000000D+00 -0.350739D+00  0.717284D-03
     17 -0.106559D-02  0.278396D-02  0.000000D+00 -0.160214D-01 -0.809732D-01
     18  0.239879D-01 -0.547943D-03  0.000000D+00  0.126884D-01 -0.118662D-01
     19  0.339371D-02  0.199796D-02  0.000000D+00 -0.148208D+00  0.106619D+00
     20  0.197091D-02  0.151053D-02  0.000000D+00  0.123664D+00 -0.277738D+00
     21 -0.131301D-01  0.199536D-01  0.000000D+00 -0.172105D-01  0.512167D-02
     22  0.123689D-01  0.486498D-02  0.000000D+00 -0.105659D+00 -0.124564D-01
     23  0.762100D-02  0.227987D-01  0.000000D+00 -0.135461D-01 -0.119806D+00
     24 -0.568728D-02 -0.984012D-02  0.000000D+00 -0.456178D-01 -0.792047D-01
                6             7             8             9            10 
      6  0.625437D+00
      7  0.000000D+00  0.140576D+00
      8  0.000000D+00 -0.815500D-02  0.601813D-01
      9  0.000000D+00 -0.118934D+00 -0.469584D-02  0.278637D+00
     10  0.000000D+00  0.848926D-03 -0.195996D-01  0.488832D-03  0.582008D-01
     11  0.000000D+00 -0.125622D-04  0.398293D-02 -0.723363D-05  0.435940D-01
     12  0.000000D+00  0.392951D-02  0.321817D-01  0.226271D-02 -0.193785D-01
     13  0.000000D+00  0.216787D-03  0.379300D-02  0.124831D-03  0.140797D-01
     14  0.000000D+00 -0.460866D-02  0.120305D-01 -0.265378D-02  0.344729D-01
     15  0.000000D+00  0.288177D-01 -0.158443D-01  0.165939D-01 -0.165766D-02
     16  0.195846D-02  0.000000D+00  0.324145D-05  0.000000D+00  0.159705D-05
     17 -0.110685D-01  0.000000D+00  0.108779D-02  0.000000D+00  0.535951D-03
     18 -0.782566D-01  0.000000D+00  0.000000D+00  0.000000D+00  0.000000D+00
     19 -0.108460D-01  0.000000D+00 -0.916264D-03  0.000000D+00 -0.451440D-03
     20 -0.343905D-02  0.000000D+00 -0.576969D-03  0.000000D+00 -0.284271D-03
     21 -0.769097D-01  0.000000D+00  0.000000D+00  0.000000D+00  0.000000D+00
     22 -0.360819D-01  0.000000D+00  0.228428D-02  0.000000D+00  0.112546D-02
     23 -0.618762D-01  0.000000D+00 -0.132795D-02  0.000000D+00 -0.654275D-03
     24 -0.301510D+00  0.000000D+00  0.000000D+00  0.000000D+00  0.000000D+00
               11            12            13            14            15 
     11  0.338414D+00
     12 -0.539307D-02  0.665530D-01
     13 -0.219835D-02 -0.105762D-02  0.308094D+00
     14 -0.538318D-02 -0.261317D-02 -0.106656D+00  0.949473D-01
     15  0.262814D-03  0.257433D-03 -0.210287D-01 -0.153374D-02  0.757073D-01
     16  0.000000D+00  0.000000D+00  0.000000D+00 -0.150666D-05  0.000000D+00
     17 -0.824717D-04  0.000000D+00 -0.208293D-03 -0.505617D-03  0.000000D+00
     18  0.000000D+00  0.000000D+00  0.000000D+00  0.000000D+00  0.000000D+00
     19  0.694673D-04  0.000000D+00  0.175448D-03  0.425890D-03  0.000000D+00
     20  0.437433D-04  0.000000D+00  0.110479D-03  0.268182D-03  0.000000D+00
     21  0.000000D+00  0.000000D+00  0.000000D+00  0.000000D+00  0.000000D+00
     22 -0.173185D-03  0.000000D+00 -0.437400D-03 -0.106176D-02  0.000000D+00
     23  0.100679D-03  0.000000D+00  0.254279D-03  0.617244D-03  0.000000D+00
     24  0.000000D+00  0.000000D+00  0.000000D+00  0.000000D+00  0.000000D+00
               16            17            18            19            20 
     16  0.350766D+00
     17 -0.812772D-03  0.507253D-01
     18 -0.201020D-02  0.111335D-01  0.711488D-01
     19  0.907946D-04  0.320440D-01 -0.642046D-03  0.133826D+00
     20  0.571619D-04  0.201693D-01 -0.402281D-03 -0.132797D+00  0.261363D+00
     21  0.000000D+00 -0.686435D-03  0.159152D-03  0.111241D-01  0.353079D-02
     22 -0.291748D-03 -0.144719D-01 -0.340240D-01  0.111726D-01  0.727845D-02
     23  0.325451D-04  0.679488D-02  0.168288D-02 -0.744298D-02 -0.504001D-02
     24  0.526277D-04  0.621363D-03  0.694867D-02  0.363970D-03  0.310542D-03
               21            22            23            24 
     21  0.703198D-01
     22  0.192173D-01  0.817215D-01
     23 -0.279196D-01  0.137355D-01  0.958626D-01
     24  0.643075D-02  0.508885D-01  0.881129D-01  0.288130D+00
 Force constants in internal coordinates: 
                1             2             3             4             5 
      1  0.168761D+00
      2  0.000000D+00  0.347122D+00
      3  0.000000D+00  0.000000D+00  0.345284D+00
      4  0.000000D+00  0.000000D+00  0.000000D+00  0.353575D+00
      5  0.000000D+00  0.000000D+00  0.000000D+00  0.000000D+00  0.350784D+00
      6  0.000000D+00  0.000000D+00  0.000000D+00  0.000000D+00  0.000000D+00
      7  0.000000D+00  0.000000D+00  0.000000D+00  0.000000D+00  0.000000D+00
      8  0.000000D+00  0.000000D+00  0.000000D+00  0.000000D+00  0.000000D+00
      9  0.000000D+00  0.000000D+00  0.000000D+00  0.000000D+00  0.000000D+00
     10  0.000000D+00  0.000000D+00  0.000000D+00  0.000000D+00  0.000000D+00
     11  0.000000D+00  0.000000D+00  0.000000D+00  0.000000D+00  0.000000D+00
     12  0.000000D+00  0.000000D+00  0.000000D+00  0.000000D+00  0.000000D+00
     13  0.000000D+00  0.000000D+00  0.000000D+00  0.000000D+00  0.000000D+00
     14  0.000000D+00  0.000000D+00  0.000000D+00  0.000000D+00  0.000000D+00
     15  0.000000D+00  0.000000D+00  0.000000D+00  0.000000D+00  0.000000D+00
     16  0.000000D+00  0.000000D+00  0.000000D+00  0.000000D+00  0.000000D+00
     17  0.000000D+00  0.000000D+00  0.000000D+00  0.000000D+00  0.000000D+00
     18  0.000000D+00  0.000000D+00  0.000000D+00  0.000000D+00  0.000000D+00
                6             7             8             9            10 
      6  0.344940D+00
      7  0.000000D+00  0.333323D+00
      8  0.000000D+00  0.000000D+00  0.306353D+00
      9  0.000000D+00  0.000000D+00  0.193061D-01  0.282605D+00
     10  0.000000D+00  0.000000D+00  0.140920D+00  0.109301D-02  0.313081D+00
     11  0.000000D+00  0.000000D+00  0.000000D+00  0.000000D+00  0.000000D+00
     12  0.000000D+00  0.000000D+00  0.000000D+00  0.000000D+00  0.000000D+00
     13  0.000000D+00  0.000000D+00  0.000000D+00  0.000000D+00  0.000000D+00
     14  0.000000D+00  0.000000D+00  0.412808D-02 -0.781357D-01 -0.711966D-02
     15  0.000000D+00  0.000000D+00  0.203402D-01  0.119142D-01  0.396592D-01
     16  0.000000D+00  0.000000D+00  0.000000D+00  0.000000D+00  0.000000D+00
     17  0.000000D+00  0.000000D+00  0.000000D+00  0.000000D+00  0.000000D+00
     18  0.000000D+00  0.000000D+00  0.000000D+00  0.000000D+00  0.000000D+00
               11            12            13            14            15 
     11  0.300540D+00
     12  0.675603D-03  0.299738D+00
     13  0.733574D-01  0.682077D-01  0.256566D+00
     14  0.000000D+00  0.000000D+00  0.000000D+00  0.219628D+00
     15  0.000000D+00  0.000000D+00  0.000000D+00 -0.159144D+00  0.212485D+00
     16  0.240587D-02 -0.247651D-02 -0.280685D-03  0.690000D-02  0.690000D-02
     17 -0.321591D-02  0.481652D-01  0.502126D-02  0.230000D-02  0.230000D-02
     18  0.526353D-01 -0.535555D-01  0.125909D-02  0.230000D-02  0.230000D-02
               16            17            18 
     16  0.483432D-01
     17  0.256592D-01  0.214393D+00
     18 -0.320391D-02 -0.280305D-01  0.525289D-01
 Leave Link  716 at Wed May 26 19:13:06 2021, MaxMem=   13107200 cpu:       0.0
 (Enter /programs/64bit/g09/g09-gfortran/bin/l103.exe)

 GradGradGradGradGradGradGradGradGradGradGradGradGradGradGradGradGradGrad
 Berny optimization.
 Search for a local minimum.
 Step number   1 out of a maximum of    2
 All quantities printed in internal units (Hartrees-Bohrs-Radians)
 Second derivative matrix not updated -- first step.
 The second derivative matrix:
                          d1        a1        t1        d2        a2
           d1           0.16876
           a1           0.00000   0.30635
           t1           0.00000   0.00413   0.21963
           d2           0.00000  -0.00000  -0.00000   0.34712
           a2           0.00000   0.01931  -0.07814  -0.00000   0.28260
           t2          -0.00000   0.02034  -0.15914  -0.00000   0.01191
           d3           0.00000  -0.00000  -0.00000  -0.00000   0.00000
           d4           0.00000  -0.00000  -0.00000  -0.00000   0.00000
           a3           0.00000   0.14092  -0.00712  -0.00000   0.00109
           d5          -0.00000   0.00000  -0.00000   0.00000  -0.00000
           a4           0.00000   0.00000   0.00000   0.00000   0.00000
           t3           0.00000   0.00000   0.00690   0.00000   0.00000
           d6           0.00000   0.00000   0.00000   0.00000  -0.00000
           a5          -0.00000   0.00000  -0.00000   0.00000   0.00000
           t4           0.00000   0.00000   0.00230   0.00000   0.00000
           d7           0.00000   0.00000   0.00000   0.00000  -0.00000
           a6           0.00000   0.00000   0.00000   0.00000   0.00000
           t5          -0.00000   0.00000   0.00230   0.00000   0.00000
                          t2        d3        d4        a3        d5
           t2           0.21249
           d3           0.00000   0.34528
           d4           0.00000  -0.00000   0.35358
           a3           0.03966   0.00000  -0.00000   0.31308
           d5           0.00000  -0.00000  -0.00000  -0.00000   0.35078
           a4          -0.00000   0.00000  -0.00000   0.00000  -0.00000
           t3           0.00690  -0.00000   0.00000   0.00000  -0.00000
           d6           0.00000  -0.00000   0.00000   0.00000  -0.00000
           a5          -0.00000   0.00000  -0.00000  -0.00000   0.00000
           t4           0.00230  -0.00000   0.00000   0.00000   0.00000
           d7          -0.00000   0.00000  -0.00000  -0.00000   0.00000
           a6           0.00000   0.00000   0.00000   0.00000  -0.00000
           t5           0.00230   0.00000   0.00000   0.00000  -0.00000
                          a4        t3        d6        a5        t4
           a4           0.30054
           t3           0.00241   0.04834
           d6          -0.00000   0.00000   0.34494
           a5           0.00068  -0.00248   0.00000   0.29974
           t4          -0.00322   0.02566   0.00000   0.04817   0.21439
           d7           0.00000  -0.00000   0.00000   0.00000   0.00000
           a6           0.07336  -0.00028   0.00000   0.06821   0.00502
           t5           0.05264  -0.00320   0.00000  -0.05356  -0.02803
                          d7        a6        t5
           d7           0.33332
           a6          -0.00000   0.25657
           t5          -0.00000   0.00126   0.05253
     Eigenvalues --- 1000.000001000.000001000.000001000.000001000.00000
     Eigenvalues --- 1000.000001000.000001000.000001000.000001000.00000
     Eigenvalues --- 1000.000001000.000001000.000001000.000001000.00000
     Eigenvalues --- 1000.000001000.000001000.00000
 Angle between quadratic step and forces=  90.00 degrees.
 Linear search not attempted -- first point.
 Variable       Old X    -DE/DX   Delta X   Delta X   Delta X     New X
                                 (Linear)    (Quad)   (Total)
    d1        3.25900   0.00244   0.00000   0.00000   0.00000   3.25900
    a1        2.61914  -0.04537   0.00000   0.00000   0.00000   2.61914
    t1        1.72348   0.01715   0.00000   0.00000   0.00000   1.72348
    d2        2.06145   0.00149   0.00000   0.00000   0.00000   2.06145
    a2        1.54111   0.01233   0.00000   0.00000   0.00000   1.54111
    t2       -2.75082   0.01734   0.00000   0.00000   0.00000  -2.75082
    d3        2.06447   0.00291   0.00000   0.00000   0.00000   2.06447
    d4        2.05098  -0.00003   0.00000   0.00000   0.00000   2.05098
    a3        1.50303   0.08770   0.00000   0.00000   0.00000   1.50303
    d5        2.05548  -0.00013   0.00000   0.00000   0.00000   2.05548
    a4        1.57810   0.02722   0.00000   0.00000   0.00000   1.57810
    t3        3.13861  -0.00099   0.00000   0.00000   0.00000   3.13861
    d6        2.06504  -0.00005   0.00000   0.00000   0.00000   2.06504
    a5        1.58150   0.04318   0.00000   0.00000   0.00000   1.58150
    t4        2.13575  -0.04942   0.00000   0.00000   0.00000   2.13575
    d7        2.08472  -0.00043   0.00000   0.00000   0.00000   2.08472
    a6        2.72362  -0.09772   0.00000   0.00000   0.00000   2.72362
    t5       -2.09440   0.00013   0.00000   0.00000   0.00000  -2.09440
         Item               Value     Threshold  Converged?
 Maximum Force            0.000000     0.000450     YES
 RMS     Force            0.000000     0.000300     YES
 Maximum Displacement     0.000000     0.001800     YES
 RMS     Displacement     0.000000     0.001200     YES
 Predicted change in Energy=-0.000000D+00
 Optimization completed.
    -- Stationary point found.
                       ----------------------------
                       !   Optimized Parameters   !
                       ! (Angstroms and Degrees)  !
 ----------------------                            ----------------------
 !      Name          Value   Derivative information (Atomic Units)     !
 ------------------------------------------------------------------------
 !       d1          1.7246   -DE/DX =    0.0024                        !
 !       a1        150.0656   -DE/DX =   -0.0454                        !
 !       t1         98.748    -DE/DX =    0.0171                        !
 !       d2          1.0909   -DE/DX =    0.0015                        !
 !       a2         88.299    -DE/DX =    0.0123                        !
 !       t2       -157.6104   -DE/DX =    0.0173                        !
 !       d3          1.0925   -DE/DX =    0.0029                        !
 !       d4          1.0853   -DE/DX =    0.0                           !
 !       a3         86.1172   -DE/DX =    0.0877                        !
 !       d5          1.0877   -DE/DX =   -0.0001                        !
 !       a4         90.4187   -DE/DX =    0.0272                        !
 !       t3        179.8293   -DE/DX =   -0.001                         !
 !       d6          1.0928   -DE/DX =   -0.0001                        !
 !       a5         90.6133   -DE/DX =    0.0432                        !
 !       t4        122.3692   -DE/DX =   -0.0494                        !
 !       d7          1.1032   -DE/DX =   -0.0004                        !
 !       a6        156.0518   -DE/DX =   -0.0977                        !
 !       t5       -120.0004   -DE/DX =    0.0001                        !
 ------------------------------------------------------------------------
 GradGradGradGradGradGradGradGradGradGradGradGradGradGradGradGradGradGrad

 Leave Link  103 at Wed May 26 19:13:06 2021, MaxMem=   13107200 cpu:       0.0
 (Enter /programs/64bit/g09/g09-gfortran/bin/l9999.exe)
 1\1\GINC-MOLMOD\Force\RB3LYP\6-31+G(d,p)\C2H6\OSPITE\26-May-2021\1\\#p
  b3lyp/6-31+g(d,p) force nosym\\c2h6 molecule\\0,1\C\C,1,d1\H,1,d2,2,a
 1\H,1,d3,2,a2,3,t1,0\H,1,d4,2,a3,3,t2,0\H,2,d5,1,a4,3,t3,0\H,2,d6,1,a5
 ,6,t4,0\H,2,d7,1,a6,6,t5,0\\d1=1.72458665\a1=150.06563222\t1=98.748014
 97\d2=1.09087062\a2=88.2989641\t2=-157.61041567\d3=1.09247266\d4=1.085
 33347\a3=86.11721232\d5=1.08771226\a4=90.4186688\t3=179.82926785\d6=1.
 09277411\a5=90.61331494\t4=122.36923489\d7=1.10318554\a6=156.05182872\
 t5=-120.00044859\\Version=EM64L-G09RevA.02\HF=-79.720244\RMSD=3.203e-0
 9\RMSF=2.214e-02\Dipole=-0.1029671,-0.2111608,-0.0078335\Quadrupole=0.
 0476242,-0.6472122,0.5995879,-0.7795881,-0.5458855,0.1359516\PG=C01 [X
 (C2H6)]\\@


 FAULTILY FAULTLESS, ICILY REGULAR, SPLENDIDLY NULL...
           MAUDE BY TENNYSON
 Job cpu time:  0 days  0 hours  0 minutes  9.2 seconds.
 File lengths (MBytes):  RWF=      5 Int=      0 D2E=      0 Chk=      1 Scr=      1
 Normal termination of Gaussian 09 at Wed May 26 19:13:06 2021.
