 Entering Gaussian System, Link 0=g09
 Input=c2h6_053.com
 Output=c2h6_053.log
 Initial command:
 /programs/64bit/g09/g09-gfortran/bin/l1.exe /data/scratch/Gau-7195.inp -scrdir=/data/scratch/
 Entering Link 1 = /programs/64bit/g09/g09-gfortran/bin/l1.exe PID=      7196.
  
 Copyright (c) 1988,1990,1992,1993,1995,1998,2003,2009, Gaussian, Inc.
                  All Rights Reserved.
  
 This is part of the Gaussian(R) 09 program.  It is based on
 the Gaussian(R) 03 system (copyright 2003, Gaussian, Inc.),
 the Gaussian(R) 98 system (copyright 1998, Gaussian, Inc.),
 the Gaussian(R) 94 system (copyright 1995, Gaussian, Inc.),
 the Gaussian 92(TM) system (copyright 1992, Gaussian, Inc.),
 the Gaussian 90(TM) system (copyright 1990, Gaussian, Inc.),
 the Gaussian 88(TM) system (copyright 1988, Gaussian, Inc.),
 the Gaussian 86(TM) system (copyright 1986, Carnegie Mellon
 University), and the Gaussian 82(TM) system (copyright 1983,
 Carnegie Mellon University). Gaussian is a federally registered
 trademark of Gaussian, Inc.
  
 This software contains proprietary and confidential information,
 including trade secrets, belonging to Gaussian, Inc.
  
 This software is provided under written license and may be
 used, copied, transmitted, or stored only in accord with that
 written license.
  
 The following legend is applicable only to US Government
 contracts under FAR:
  
                    RESTRICTED RIGHTS LEGEND
  
 Use, reproduction and disclosure by the US Government is
 subject to restrictions as set forth in subparagraphs (a)
 and (c) of the Commercial Computer Software - Restricted
 Rights clause in FAR 52.227-19.
  
 Gaussian, Inc.
 340 Quinnipiac St., Bldg. 40, Wallingford CT 06492
  
  
 ---------------------------------------------------------------
 Warning -- This program may not be used in any manner that
 competes with the business of Gaussian, Inc. or will provide
 assistance to any competitor of Gaussian, Inc.  The licensee
 of this program is prohibited from giving any competitor of
 Gaussian, Inc. access to this program.  By using this program,
 the user acknowledges that Gaussian, Inc. is engaged in the
 business of creating and licensing software in the field of
 computational chemistry and represents and warrants to the
 licensee that it is not a competitor of Gaussian, Inc. and that
 it will not use this program in any manner prohibited above.
 ---------------------------------------------------------------
  

 Cite this work as:
 Gaussian 09, Revision A.02,
 M. J. Frisch, G. W. Trucks, H. B. Schlegel, G. E. Scuseria, 
 M. A. Robb, J. R. Cheeseman, G. Scalmani, V. Barone, B. Mennucci, 
 G. A. Petersson, H. Nakatsuji, M. Caricato, X. Li, H. P. Hratchian, 
 A. F. Izmaylov, J. Bloino, G. Zheng, J. L. Sonnenberg, M. Hada, 
 M. Ehara, K. Toyota, R. Fukuda, J. Hasegawa, M. Ishida, T. Nakajima, 
 Y. Honda, O. Kitao, H. Nakai, T. Vreven, J. A. Montgomery, Jr., 
 J. E. Peralta, F. Ogliaro, M. Bearpark, J. J. Heyd, E. Brothers, 
 K. N. Kudin, V. N. Staroverov, R. Kobayashi, J. Normand, 
 K. Raghavachari, A. Rendell, J. C. Burant, S. S. Iyengar, J. Tomasi, 
 M. Cossi, N. Rega, J. M. Millam, M. Klene, J. E. Knox, J. B. Cross, 
 V. Bakken, C. Adamo, J. Jaramillo, R. Gomperts, R. E. Stratmann, 
 O. Yazyev, A. J. Austin, R. Cammi, C. Pomelli, J. W. Ochterski, 
 R. L. Martin, K. Morokuma, V. G. Zakrzewski, G. A. Voth, 
 P. Salvador, J. J. Dannenberg, S. Dapprich, A. D. Daniels, 
 O. Farkas, J. B. Foresman, J. V. Ortiz, J. Cioslowski, 
 and D. J. Fox, Gaussian, Inc., Wallingford CT, 2009.
 
 ******************************************
 Gaussian 09:  EM64L-G09RevA.02 11-Jun-2009
                26-May-2021 
 ******************************************
 %chk=c2h6_053.chk
 %mem=100MB
 --------------------------------
 #p b3lyp/6-31+g(d,p) force nosym
 --------------------------------
 1/10=7,30=1,38=1/1,3;
 2/12=2,15=1,17=6,18=5,40=1/2;
 3/5=1,6=6,7=111,11=2,16=1,25=1,30=1,71=1,74=-5/1,2,3;
 4//1;
 5/5=2,38=5/2;
 6/7=2,8=2,9=2,10=2,28=1/1;
 7/29=1,30=1/1,2,3,16;
 1/10=7,30=1/3;
 99//99;
 Leave Link    1 at Wed May 26 19:16:33 2021, MaxMem=   13107200 cpu:       0.0
 (Enter /programs/64bit/g09/g09-gfortran/bin/l101.exe)
 -------------
 c2h6 molecule
 -------------
 Symbolic Z-matrix:
 Charge =  0 Multiplicity = 1
 C1
 C2                   1    d1
 H3                   1    d2       2    a1
 H4                   1    d3       2    a2       3    t1       0
 H5                   1    d4       2    a3       3    t2       0
 H6                   2    d5       1    a4       3    t3       0
 H7                   2    d6       1    a5       6    t4       0
 H8                   2    d7       1    a6       6    t5       0
       Variables:
       Constants:
  d1                    1.53628                  
  a1                  112.06333                  
  t1                  108.13533                  
  d2                    1.10743                  
  a2                  105.67501                  
  t2                 -142.70789                  
  d3                    1.1364                   
  d4                    1.08414                  
  a3                  114.09539                  
  d5                    1.10468                  
  a4                  106.78489                  
  t3                  179.22945                  
  d6                    1.09543                  
  a5                  115.32671                  
  t4                  114.05542                  
  d7                    1.08074                  
  a6                  115.61715                  
  t5                 -123.25479                  
 
 NAtoms=      8 NQM=      8 NQMF=      0 NMic=      0 NMicF=      0 NTot=      8.
                    Isotopes and Nuclear Properties:
 (Nuclear quadrupole moments (NQMom) in fm**2, nuclear magnetic moments (NMagM)
  in nuclear magnetons)

  Atom         1           2           3           4           5           6           7           8
 IAtWgt=          12          12           1           1           1           1           1           1
 AtmWgt=  12.0000000  12.0000000   1.0078250   1.0078250   1.0078250   1.0078250   1.0078250   1.0078250
 NucSpn=           0           0           1           1           1           1           1           1
 AtZEff=   0.0000000   0.0000000   0.0000000   0.0000000   0.0000000   0.0000000   0.0000000   0.0000000
 NQMom=    0.0000000   0.0000000   0.0000000   0.0000000   0.0000000   0.0000000   0.0000000   0.0000000
 NMagM=    0.0000000   0.0000000   2.7928460   2.7928460   2.7928460   2.7928460   2.7928460   2.7928460
 Leave Link  101 at Wed May 26 19:16:33 2021, MaxMem=   13107200 cpu:       0.0
 (Enter /programs/64bit/g09/g09-gfortran/bin/l103.exe)

 GradGradGradGradGradGradGradGradGradGradGradGradGradGradGradGradGradGrad
 Berny optimization.
 Initialization pass.
                       ----------------------------
                       !    Initial Parameters    !
                       ! (Angstroms and Degrees)  !
 ----------------------                            ----------------------
 !      Name          Value   Derivative information (Atomic Units)     !
 ------------------------------------------------------------------------
 !       d1          1.5363   Frozen                                    !
 !       a1        112.0633   Frozen                                    !
 !       t1        108.1353   Frozen                                    !
 !       d2          1.1074   Frozen                                    !
 !       a2        105.675    Frozen                                    !
 !       t2       -142.7079   Frozen                                    !
 !       d3          1.1364   Frozen                                    !
 !       d4          1.0841   Frozen                                    !
 !       a3        114.0954   Frozen                                    !
 !       d5          1.1047   Frozen                                    !
 !       a4        106.7849   Frozen                                    !
 !       t3        179.2295   Frozen                                    !
 !       d6          1.0954   Frozen                                    !
 !       a5        115.3267   Frozen                                    !
 !       t4        114.0554   Frozen                                    !
 !       d7          1.0807   Frozen                                    !
 !       a6        115.6171   Frozen                                    !
 !       t5       -123.2548   Frozen                                    !
 ------------------------------------------------------------------------
 Trust Radius=3.00D-01 FncErr=1.00D-07 GrdErr=1.00D-07
 Number of steps in this run=   2 maximum allowed number of steps=   2.
 GradGradGradGradGradGradGradGradGradGradGradGradGradGradGradGradGradGrad

 Leave Link  103 at Wed May 26 19:16:33 2021, MaxMem=   13107200 cpu:       0.0
 (Enter /programs/64bit/g09/g09-gfortran/bin/l202.exe)
                          Input orientation:                          
 ---------------------------------------------------------------------
 Center     Atomic      Atomic             Coordinates (Angstroms)
 Number     Number       Type             X           Y           Z
 ---------------------------------------------------------------------
      1          6           0        0.000000    0.000000    0.000000
      2          6           0        0.000000    0.000000    1.536279
      3          1           0        1.026333    0.000000   -0.415986
      4          1           0       -0.340563   -1.039781   -0.307032
      5          1           0       -0.787342    0.599622   -0.442607
      6          1           0       -1.057517    0.014223    1.855287
      7          1           0        0.391405   -0.909494    2.004881
      8          1           0        0.545293    0.807660    2.003542
 ---------------------------------------------------------------------
                    Distance matrix (angstroms):
                    1          2          3          4          5
     1  C    0.000000
     2  C    1.536279   0.000000
     3  H    1.107431   2.205606   0.000000
     4  H    1.136396   2.143577   1.720877   0.000000
     5  H    1.084138   2.212565   1.910411   1.704592   0.000000
     6  H    2.135564   1.104677   3.082420   2.510094   2.386630
     7  H    2.236051   1.095429   2.662876   2.428517   3.107583
     8  H    2.227968   1.080738   2.595733   3.088127   2.793356
                    6          7          8
     6  H    0.000000
     7  H    1.724821   0.000000
     8  H    1.794582   1.724036   0.000000
 Symmetry turned off by external request.
 Stoichiometry    C2H6
 Framework group  C1[X(C2H6)]
 Deg. of freedom    18
 Full point group                 C1      NOp   1
 Rotational constants (GHZ):     80.0693321     19.8850826     19.5275144
 Leave Link  202 at Wed May 26 19:16:33 2021, MaxMem=   13107200 cpu:       0.0
 (Enter /programs/64bit/g09/g09-gfortran/bin/l301.exe)
 Standard basis: 6-31+G(d,p) (6D, 7F)
 Ernie: Thresh=  0.10000D-02 Tol=  0.10000D-05 Strict=F.
 Integral buffers will be    131072 words long.
 Raffenetti 2 integral format.
 Two-electron integral symmetry is turned off.
    68 basis functions,   106 primitive gaussians,    68 cartesian basis functions
     9 alpha electrons        9 beta electrons
       nuclear repulsion energy        41.9474577543 Hartrees.
 IExCor=  402 DFT=T Ex+Corr=B3LYP ExCW=0 ScaHFX=  0.200000
 ScaDFX=  0.800000  0.720000  1.000000  0.810000 ScalE2=  1.000000  1.000000
 IRadAn=      0 IRanWt=     -1 IRanGd=            0 ICorTp=0
 NAtoms=    8 NActive=    8 NUniq=    8 SFac= 7.50D-01 NAtFMM=   80 NAOKFM=F Big=F
 Leave Link  301 at Wed May 26 19:16:33 2021, MaxMem=   13107200 cpu:       0.0
 (Enter /programs/64bit/g09/g09-gfortran/bin/l302.exe)
 NPDir=0 NMtPBC=     1 NCelOv=     1 NCel=       1 NClECP=     1 NCelD=      1
         NCelK=      1 NCelE2=     1 NClLst=     1 CellRange=     0.0.
 One-electron integrals computed using PRISM.
 NBasis=    68 RedAO= T  NBF=    68
 NBsUse=    68 1.00D-06 NBFU=    68
 Precomputing XC quadrature grid using
 IXCGrd= 2 IRadAn=           0 IRanWt=          -1 IRanGd=           0 AccXCQ= 1.00D-10.
 NRdTot=     510 NPtTot=       65100 NUsed=       68787 NTot=       68819
 NSgBfM=    68    68    68    68    68 NAtAll=     8     8.
 Leave Link  302 at Wed May 26 19:16:34 2021, MaxMem=   13107200 cpu:       0.2
 (Enter /programs/64bit/g09/g09-gfortran/bin/l303.exe)
 DipDrv:  MaxL=1.
 Leave Link  303 at Wed May 26 19:16:34 2021, MaxMem=   13107200 cpu:       0.0
 (Enter /programs/64bit/g09/g09-gfortran/bin/l401.exe)
 Harris functional with IExCor=  402 diagonalized for initial guess.
 ExpMin= 4.38D-02 ExpMax= 3.05D+03 ExpMxC= 4.57D+02 IAcc=2 IRadAn=         0 AccDes= 0.00D+00
 HarFok:  IExCor=  402 AccDes= 0.00D+00 IRadAn=         0 IDoV= 1
 ScaDFX=  1.000000  1.000000  1.000000  1.000000
 FoFCou: FMM=F IPFlag=           0 FMFlag=      100000 FMFlg1=           0
         NFxFlg=           0 DoJE=T BraDBF=F KetDBF=T FulRan=T
         Omega=  0.000000  0.000000  1.000000  0.000000  0.000000 ICntrl=     500 IOpCl=  0
         NMat0=    1 NMatS0=    1 NMatT0=    0 NMatD0=    1 NMtDS0=    0 NMtDT0=    0
         I1Cent=           4 NGrid=           0.
 Symmetry not used in FoFCou.
 Harris En= -79.8851198806676    
 Leave Link  401 at Wed May 26 19:16:35 2021, MaxMem=   13107200 cpu:       1.4
 (Enter /programs/64bit/g09/g09-gfortran/bin/l502.exe)
 Closed shell SCF:
 Requested convergence on RMS density matrix=1.00D-08 within 128 cycles.
 Requested convergence on MAX density matrix=1.00D-06.
 Requested convergence on             energy=1.00D-06.
 No special actions if energy rises.
 Using DIIS extrapolation, IDIIS=  1040.
 Two-electron integral symmetry not used.
        68702 words used for storage of precomputed grid.
 Keep R1 ints in memory in canonical form, NReq=3743087.
 IEnd=      101552 IEndB=      101552 NGot=    13107200 MDV=    10273922
 LenX=    10273922 LenY=    10268857
 Symmetry not used in FoFDir.
 MinBra= 0 MaxBra= 2 Meth= 1.
 IRaf=       0 NMat=   1 IRICut=       1 DoRegI=T DoRafI=F ISym2E= 0 JSym2E=0.

 Cycle   1  Pass 1  IDiag  1:
 E= -79.7018037269330    
 DIIS: error= 3.98D-02 at cycle   1 NSaved=   1.
 NSaved= 1 IEnMin= 1 EnMin= -79.7018037269330     IErMin= 1 ErrMin= 3.98D-02
 ErrMax= 3.98D-02 EMaxC= 1.00D-01 BMatC= 1.13D-01 BMatP= 1.13D-01
 IDIUse=3 WtCom= 6.02D-01 WtEn= 3.98D-01
 Coeff-Com:  0.100D+01
 Coeff-En:   0.100D+01
 Coeff:      0.100D+01
 Gap=     0.265 Goal=   None    Shift=    0.000
 GapD=    0.265 DampG=1.000 DampE=0.500 DampFc=0.5000 IDamp=-1.
 Damping current iteration by 5.00D-01
 RMSDP=9.69D-03 MaxDP=1.42D-01              OVMax= 2.05D-01

 Cycle   2  Pass 1  IDiag  1:
 E= -79.7545569318163     Delta-E=       -0.052753204883 Rises=F Damp=T
 DIIS: error= 1.13D-02 at cycle   2 NSaved=   2.
 NSaved= 2 IEnMin= 2 EnMin= -79.7545569318163     IErMin= 2 ErrMin= 1.13D-02
 ErrMax= 1.13D-02 EMaxC= 1.00D-01 BMatC= 4.90D-03 BMatP= 1.13D-01
 IDIUse=3 WtCom= 8.87D-01 WtEn= 1.13D-01
 Coeff-Com:  0.116D+00 0.884D+00
 Coeff-En:   0.198D+00 0.802D+00
 Coeff:      0.125D+00 0.875D+00
 Gap=     0.380 Goal=   None    Shift=    0.000
 RMSDP=1.35D-03 MaxDP=1.22D-02 DE=-5.28D-02 OVMax= 1.17D-01

 Cycle   3  Pass 1  IDiag  1:
 E= -79.8306399126976     Delta-E=       -0.076082980881 Rises=F Damp=F
 DIIS: error= 1.68D-03 at cycle   3 NSaved=   3.
 NSaved= 3 IEnMin= 3 EnMin= -79.8306399126976     IErMin= 3 ErrMin= 1.68D-03
 ErrMax= 1.68D-03 EMaxC= 1.00D-01 BMatC= 1.94D-04 BMatP= 4.90D-03
 IDIUse=3 WtCom= 9.83D-01 WtEn= 1.68D-02
 Coeff-Com:  0.978D-02 0.124D+00 0.866D+00
 Coeff-En:   0.000D+00 0.000D+00 0.100D+01
 Coeff:      0.962D-02 0.122D+00 0.868D+00
 Gap=     0.344 Goal=   None    Shift=    0.000
 RMSDP=2.40D-04 MaxDP=2.34D-03 DE=-7.61D-02 OVMax= 4.81D-03

 Cycle   4  Pass 1  IDiag  1:
 E= -79.8308079911352     Delta-E=       -0.000168078438 Rises=F Damp=F
 DIIS: error= 4.20D-04 at cycle   4 NSaved=   4.
 NSaved= 4 IEnMin= 4 EnMin= -79.8308079911352     IErMin= 4 ErrMin= 4.20D-04
 ErrMax= 4.20D-04 EMaxC= 1.00D-01 BMatC= 1.57D-05 BMatP= 1.94D-04
 IDIUse=3 WtCom= 9.96D-01 WtEn= 4.20D-03
 Coeff-Com: -0.140D-03-0.251D-02 0.207D+00 0.796D+00
 Coeff-En:   0.000D+00 0.000D+00 0.000D+00 0.100D+01
 Coeff:     -0.139D-03-0.250D-02 0.206D+00 0.796D+00
 Gap=     0.344 Goal=   None    Shift=    0.000
 RMSDP=6.25D-05 MaxDP=7.67D-04 DE=-1.68D-04 OVMax= 1.48D-03

 Cycle   5  Pass 1  IDiag  1:
 E= -79.8308212825805     Delta-E=       -0.000013291445 Rises=F Damp=F
 DIIS: error= 1.90D-04 at cycle   5 NSaved=   5.
 NSaved= 5 IEnMin= 5 EnMin= -79.8308212825805     IErMin= 5 ErrMin= 1.90D-04
 ErrMax= 1.90D-04 EMaxC= 1.00D-01 BMatC= 2.22D-06 BMatP= 1.57D-05
 IDIUse=3 WtCom= 9.98D-01 WtEn= 1.90D-03
 Coeff-Com:  0.123D-04-0.332D-02 0.932D-01 0.412D+00 0.498D+00
 Coeff-En:   0.000D+00 0.000D+00 0.000D+00 0.000D+00 0.100D+01
 Coeff:      0.122D-04-0.332D-02 0.930D-01 0.411D+00 0.499D+00
 Gap=     0.344 Goal=   None    Shift=    0.000
 RMSDP=1.75D-05 MaxDP=3.40D-04 DE=-1.33D-05 OVMax= 4.62D-04

 Cycle   6  Pass 1  IDiag  1:
 E= -79.8308234281636     Delta-E=       -0.000002145583 Rises=F Damp=F
 DIIS: error= 1.43D-05 at cycle   6 NSaved=   6.
 NSaved= 6 IEnMin= 6 EnMin= -79.8308234281636     IErMin= 6 ErrMin= 1.43D-05
 ErrMax= 1.43D-05 EMaxC= 1.00D-01 BMatC= 2.24D-08 BMatP= 2.22D-06
 IDIUse=1 WtCom= 1.00D+00 WtEn= 0.00D+00
 Coeff-Com:  0.204D-03-0.614D-03 0.570D-02 0.312D-01 0.951D-01 0.868D+00
 Coeff:      0.204D-03-0.614D-03 0.570D-02 0.312D-01 0.951D-01 0.868D+00
 Gap=     0.344 Goal=   None    Shift=    0.000
 RMSDP=2.44D-06 MaxDP=4.23D-05 DE=-2.15D-06 OVMax= 5.83D-05

 Cycle   7  Pass 1  IDiag  1:
 E= -79.8308234507883     Delta-E=       -0.000000022625 Rises=F Damp=F
 DIIS: error= 3.89D-06 at cycle   7 NSaved=   7.
 NSaved= 7 IEnMin= 7 EnMin= -79.8308234507883     IErMin= 7 ErrMin= 3.89D-06
 ErrMax= 3.89D-06 EMaxC= 1.00D-01 BMatC= 1.01D-09 BMatP= 2.24D-08
 IDIUse=1 WtCom= 1.00D+00 WtEn= 0.00D+00
 Coeff-Com:  0.762D-04-0.899D-04-0.179D-02-0.596D-02 0.109D-01 0.269D+00
 Coeff-Com:  0.728D+00
 Coeff:      0.762D-04-0.899D-04-0.179D-02-0.596D-02 0.109D-01 0.269D+00
 Coeff:      0.728D+00
 Gap=     0.344 Goal=   None    Shift=    0.000
 RMSDP=6.38D-07 MaxDP=6.27D-06 DE=-2.26D-08 OVMax= 1.21D-05

 Cycle   8  Pass 1  IDiag  1:
 E= -79.8308234519541     Delta-E=       -0.000000001166 Rises=F Damp=F
 DIIS: error= 2.08D-07 at cycle   8 NSaved=   8.
 NSaved= 8 IEnMin= 8 EnMin= -79.8308234519541     IErMin= 8 ErrMin= 2.08D-07
 ErrMax= 2.08D-07 EMaxC= 1.00D-01 BMatC= 3.57D-12 BMatP= 1.01D-09
 IDIUse=1 WtCom= 1.00D+00 WtEn= 0.00D+00
 Coeff-Com: -0.655D-06 0.757D-06-0.167D-03-0.652D-03-0.506D-03 0.395D-02
 Coeff-Com:  0.556D-01 0.942D+00
 Coeff:     -0.655D-06 0.757D-06-0.167D-03-0.652D-03-0.506D-03 0.395D-02
 Coeff:      0.556D-01 0.942D+00
 Gap=     0.344 Goal=   None    Shift=    0.000
 RMSDP=4.19D-08 MaxDP=4.89D-07 DE=-1.17D-09 OVMax= 8.04D-07

 Cycle   9  Pass 1  IDiag  1:
 E= -79.8308234519584     Delta-E=       -0.000000000004 Rises=F Damp=F
 DIIS: error= 2.41D-08 at cycle   9 NSaved=   9.
 NSaved= 9 IEnMin= 9 EnMin= -79.8308234519584     IErMin= 9 ErrMin= 2.41D-08
 ErrMax= 2.41D-08 EMaxC= 1.00D-01 BMatC= 6.18D-14 BMatP= 3.57D-12
 IDIUse=1 WtCom= 1.00D+00 WtEn= 0.00D+00
 Coeff-Com: -0.876D-06 0.745D-06-0.148D-04-0.706D-04-0.199D-03-0.161D-02
 Coeff-Com:  0.441D-02 0.177D+00 0.821D+00
 Coeff:     -0.876D-06 0.745D-06-0.148D-04-0.706D-04-0.199D-03-0.161D-02
 Coeff:      0.441D-02 0.177D+00 0.821D+00
 Gap=     0.344 Goal=   None    Shift=    0.000
 RMSDP=5.78D-09 MaxDP=6.28D-08 DE=-4.23D-12 OVMax= 9.27D-08

 SCF Done:  E(RB3LYP) =  -79.8308234520     A.U. after    9 cycles
             Convg  =    0.5777D-08             -V/T =  2.0115
 KE= 7.892463565016D+01 PE=-2.675730771920D+02 EE= 6.687016033563D+01
 Leave Link  502 at Wed May 26 19:16:48 2021, MaxMem=   13107200 cpu:      12.3
 (Enter /programs/64bit/g09/g09-gfortran/bin/l601.exe)
 Copying SCF densities to generalized density rwf, IOpCl= 0 IROHF=0.

 **********************************************************************

            Population analysis using the SCF density.

 **********************************************************************

 Alpha  occ. eigenvalues --  -10.18393 -10.17788  -0.75245  -0.61822  -0.44552
 Alpha  occ. eigenvalues --   -0.42357  -0.37563  -0.34688  -0.32788
 Alpha virt. eigenvalues --    0.01644   0.02938   0.05159   0.05574   0.08007
 Alpha virt. eigenvalues --    0.08797   0.09109   0.14223   0.14633   0.19863
 Alpha virt. eigenvalues --    0.20530   0.23918   0.25413   0.29274   0.32553
 Alpha virt. eigenvalues --    0.62084   0.64219   0.64928   0.67482   0.68400
 Alpha virt. eigenvalues --    0.70050   0.88176   0.91756   0.94108   0.99716
 Alpha virt. eigenvalues --    1.01463   1.08835   1.10332   1.30874   1.34441
 Alpha virt. eigenvalues --    1.46453   1.65263   1.69606   1.87250   1.92804
 Alpha virt. eigenvalues --    2.03612   2.07006   2.12720   2.15220   2.18714
 Alpha virt. eigenvalues --    2.24179   2.27633   2.37446   2.45021   2.52262
 Alpha virt. eigenvalues --    2.65666   2.73070   2.77413   2.81419   2.84995
 Alpha virt. eigenvalues --    2.91938   3.19972   3.27108   3.37353   3.41981
 Alpha virt. eigenvalues --    3.47978   3.54558   4.33625   4.58479
          Condensed to atoms (all electrons):
              1          2          3          4          5          6
     1  C    5.099819   0.260661   0.395133   0.410062   0.406985  -0.048457
     2  C    0.260661   5.101910  -0.037647  -0.062001  -0.042303   0.403366
     3  H    0.395133  -0.037647   0.548192  -0.036036  -0.016701   0.004460
     4  H    0.410062  -0.062001  -0.036036   0.595223  -0.038362  -0.002881
     5  H    0.406985  -0.042303  -0.016701  -0.038362   0.539295  -0.006390
     6  H   -0.048457   0.403366   0.004460  -0.002881  -0.006390   0.567632
     7  H   -0.043167   0.407576  -0.000948  -0.008433   0.004041  -0.032790
     8  H   -0.034262   0.396817  -0.005036   0.004805  -0.001583  -0.025400
              7          8
     1  C   -0.043167  -0.034262
     2  C    0.407576   0.396817
     3  H   -0.000948  -0.005036
     4  H   -0.008433   0.004805
     5  H    0.004041  -0.001583
     6  H   -0.032790  -0.025400
     7  H    0.563162  -0.034844
     8  H   -0.034844   0.551444
 Mulliken atomic charges:
              1
     1  C   -0.446773
     2  C   -0.428379
     3  H    0.148584
     4  H    0.137624
     5  H    0.155019
     6  H    0.140460
     7  H    0.145403
     8  H    0.148060
 Sum of Mulliken atomic charges =  -0.00000
 Mulliken charges with hydrogens summed into heavy atoms:
              1
     1  C   -0.005545
     2  C    0.005545
 Sum of Mulliken charges with hydrogens summed into heavy atoms =  -0.00000
 Electronic spatial extent (au):  <R**2>=            149.8318
 Charge=             -0.0000 electrons
 Dipole moment (field-independent basis, Debye):
    X=             -0.0551    Y=             -0.1264    Z=              0.0170  Tot=              0.1389
 Quadrupole moment (field-independent basis, Debye-Ang):
   XX=            -14.7836   YY=            -15.5486   ZZ=            -15.6763
   XY=             -0.1428   XZ=              0.2023   YZ=             -0.1054
 Traceless Quadrupole moment (field-independent basis, Debye-Ang):
   XX=              0.5526   YY=             -0.2124   ZZ=             -0.3402
   XY=             -0.1428   XZ=              0.2023   YZ=             -0.1054
 Octapole moment (field-independent basis, Debye-Ang**2):
  XXX=              0.3701  YYY=              0.9715  ZZZ=            -35.9052  XYY=              0.2694
  XXY=              0.7429  XXZ=            -11.8873  XZZ=              0.6742  YZZ=              0.1876
  YYZ=            -11.5738  XYZ=              0.3898
 Hexadecapole moment (field-independent basis, Debye-Ang**3):
 XXXX=            -31.6217 YYYY=            -31.6776 ZZZZ=           -154.3101 XXXY=             -0.3187
 XXXZ=             -0.6678 YYYX=              0.1002 YYYZ=              0.0740 ZZZX=              1.9951
 ZZZY=             -0.5138 XXYY=            -10.7661 XXZZ=            -30.1262 YYZZ=            -29.9334
 XXYZ=              0.1263 YYXZ=              1.2211 ZZXY=              0.3933
 N-N= 4.194745775427D+01 E-N=-2.675730768456D+02  KE= 7.892463565016D+01
 No NMR shielding tensors so no spin-rotation constants.
 Leave Link  601 at Wed May 26 19:16:48 2021, MaxMem=   13107200 cpu:       0.1
 (Enter /programs/64bit/g09/g09-gfortran/bin/l701.exe)
 Compute integral first derivatives.
 ... and contract with generalized density number  0.
 Leave Link  701 at Wed May 26 19:16:48 2021, MaxMem=   13107200 cpu:       0.1
 (Enter /programs/64bit/g09/g09-gfortran/bin/l702.exe)
 L702 exits ... SP integral derivatives will be done elsewhere.
 Leave Link  702 at Wed May 26 19:16:48 2021, MaxMem=   13107200 cpu:       0.0
 (Enter /programs/64bit/g09/g09-gfortran/bin/l703.exe)
 Compute integral first derivatives, UseDBF=F ICtDFT=           0.
 Integral derivatives from FoFDir, PRISM(SPDF).
 Calling FoFJK, ICntrl=      2127 FMM=F ISym2X=0 I1Cent= 0 IOpClX= 0 NMat=1 NMatS=1 NMatT=0.
 FoFCou: FMM=F IPFlag=           0 FMFlag=      100000 FMFlg1=         800
         NFxFlg=           0 DoJE=F BraDBF=F KetDBF=F FulRan=T
         Omega=  0.000000  0.000000  1.000000  0.000000  0.000000 ICntrl=    2127 IOpCl=  0
         NMat0=    1 NMatS0=    1 NMatT0=    0 NMatD0=    1 NMtDS0=    0 NMtDT0=    0
         I1Cent=           0 NGrid=           0.
 Symmetry not used in FoFCou.
 Leave Link  703 at Wed May 26 19:16:51 2021, MaxMem=   13107200 cpu:       3.3
 (Enter /programs/64bit/g09/g09-gfortran/bin/l716.exe)
 Dipole        =-2.16782205D-02-4.97273121D-02 6.69411146D-03
 -------------------------------------------------------------------
 Center     Atomic                   Forces (Hartrees/Bohr)
 Number     Number              X              Y              Z
 -------------------------------------------------------------------
      1        6           0.004669868   -0.058594101    0.002526139
      2        6          -0.018775152   -0.006444092    0.002463850
      3        1          -0.011022634    0.017406129   -0.002701442
      4        1           0.004295858    0.015083382    0.005597665
      5        1           0.009813257    0.017576550   -0.003960929
      6        1           0.005756377    0.006237720    0.003868453
      7        1           0.004756972   -0.003388077   -0.008125698
      8        1           0.000505455    0.012122487    0.000331961
 -------------------------------------------------------------------
 Cartesian Forces:  Max     0.058594101 RMS     0.014896891
 -----------------------------------------------------------------------------------------------
                       Internal Coordinate Forces (Hartree/Bohr or radian)
  Cent   Atom   N1       Length/X         N2         Alpha/Y        N3         Beta/Z          J
 -----------------------------------------------------------------------------------------------
      1  C 
      2  C        1  -0.001461(     1)
      3  H        1  -0.009201(     2)      2   0.013904(     8)
      4  H        1  -0.016601(     3)      2  -0.002481(     9)      3   0.001266(    14)     0
      5  H        1   0.004212(     4)      2   0.005030(    10)      3   0.037271(    15)     0
      6  H        2  -0.004313(     5)      1   0.011151(    11)      3   0.004770(    16)     0
      7  H        2   0.001037(     6)      1  -0.019625(    12)      6   0.005670(    17)     0
      8  H        2   0.009458(     7)      1  -0.008510(    13)      6   0.011720(    18)     0
 -----------------------------------------------------------------------------------------------
 Internal  Forces:  Max     0.037271068 RMS     0.012646765
 Force constants in Cartesian coordinates: 
                1             2             3             4             5 
      1  0.687770D+00
      2 -0.588997D-01  0.550982D+00
      3  0.869910D-02 -0.179370D-01  0.631175D+00
      4 -0.960689D-01  0.242236D-02  0.250296D-02  0.630346D+00
      5  0.238216D-02 -0.898264D-01  0.757287D-02  0.270830D-01  0.630143D+00
      6 -0.188562D-02 -0.147597D-02 -0.288511D+00  0.320877D-01  0.671522D-03
      7 -0.290121D+00  0.409099D-02  0.827677D-01  0.996818D-02  0.205066D-03
      8  0.135655D-01 -0.707974D-01  0.597764D-02  0.699949D-03  0.274814D-02
      9  0.952702D-01  0.100934D-01 -0.124528D+00  0.245938D-01  0.505945D-03
     10 -0.875810D-01 -0.628390D-01 -0.201096D-01  0.117364D-02  0.200782D-02
     11 -0.627382D-01 -0.259435D+00 -0.583797D-01  0.189144D-02  0.628324D-02
     12 -0.226822D-01 -0.662432D-01 -0.795663D-01 -0.770728D-02 -0.235056D-01
     13 -0.229447D+00  0.114386D+00 -0.738602D-01  0.755427D-02 -0.396991D-02
     14  0.104844D+00 -0.150107D+00  0.627661D-01 -0.439298D-02  0.617444D-02
     15 -0.812871D-01  0.740868D-01 -0.138569D+00 -0.193895D-01  0.154268D-01
     16  0.764664D-02 -0.111512D-03  0.000000D+00 -0.306288D+00  0.226631D-02
     17 -0.374130D-03  0.993764D-03  0.000000D+00  0.342727D-03 -0.688460D-01
     18  0.253654D-01 -0.413973D-03  0.000000D+00  0.842316D-01 -0.420653D-02
     19  0.318104D-02 -0.392664D-02  0.000000D+00 -0.102602D+00  0.750467D-01
     20 -0.363007D-02  0.974123D-02  0.000000D+00  0.779348D-01 -0.256331D+00
     21 -0.970248D-02  0.221862D-01  0.000000D+00 -0.486379D-01  0.103446D+00
     22  0.462095D-02  0.487756D-02  0.000000D+00 -0.144083D+00 -0.105021D+00
     23  0.485089D-02  0.844909D-02  0.000000D+00 -0.105981D+00 -0.230345D+00
     24 -0.137773D-01 -0.202963D-01  0.000000D+00 -0.676814D-01 -0.999112D-01
                6             7             8             9            10 
      6  0.660507D+00
      7  0.000000D+00  0.291261D+00
      8  0.000000D+00 -0.177348D-02  0.520139D-01
      9  0.000000D+00 -0.924563D-01 -0.437559D-02  0.100624D+00
     10  0.000000D+00 -0.437429D-02 -0.294241D-01 -0.107924D-01  0.782014D-01
     11  0.000000D+00  0.785785D-03  0.543800D-02  0.193871D-02  0.663303D-01
     12  0.000000D+00  0.219089D-02  0.142214D-01  0.540544D-02  0.209216D-01
     13  0.000000D+00 -0.673442D-02  0.169826D-01 -0.166154D-01  0.126251D-01
     14  0.000000D+00 -0.330836D-02  0.106192D-01 -0.816249D-02  0.239445D-01
     15  0.000000D+00  0.749768D-02 -0.158235D-01  0.184985D-01  0.998042D-02
     16  0.696926D-01  0.000000D+00  0.992399D-05  0.000000D+00  0.884660D-05
     17 -0.338718D-02  0.000000D+00  0.737878D-03  0.000000D+00  0.657771D-03
     18 -0.100518D+00  0.000000D+00  0.000000D+00  0.000000D+00  0.000000D+00
     19 -0.416776D-01  0.000000D+00 -0.724031D-03  0.000000D+00 -0.645427D-03
     20  0.910232D-01  0.000000D+00 -0.311591D-03  0.000000D+00 -0.277763D-03
     21 -0.130451D+00  0.000000D+00  0.000000D+00  0.000000D+00  0.000000D+00
     22 -0.582170D-01  0.000000D+00  0.663761D-03  0.000000D+00  0.591700D-03
     23 -0.868316D-01  0.000000D+00 -0.448139D-03  0.000000D+00 -0.399487D-03
     24 -0.141027D+00  0.000000D+00  0.000000D+00  0.000000D+00  0.000000D+00
               11            12            13            14            15 
     11  0.259693D+00
     12  0.614992D-01  0.681010D-01
     13 -0.628395D-02  0.727704D-02  0.215971D+00
     14 -0.119850D-01  0.140282D-01 -0.121128D+00  0.145280D+00
     15 -0.505828D-02  0.605979D-02  0.831985D-01 -0.686318D-01  0.114011D+00
     16 -0.289755D-05  0.000000D+00 -0.623546D-05 -0.818755D-05  0.000000D+00
     17 -0.215442D-03  0.000000D+00 -0.463625D-03 -0.608769D-03  0.000000D+00
     18  0.000000D+00  0.000000D+00  0.000000D+00  0.000000D+00  0.000000D+00
     19  0.211399D-03  0.000000D+00  0.454925D-03  0.597345D-03  0.000000D+00
     20  0.909765D-04  0.000000D+00  0.195779D-03  0.257070D-03  0.000000D+00
     21  0.000000D+00  0.000000D+00  0.000000D+00  0.000000D+00  0.000000D+00
     22 -0.193801D-03  0.000000D+00 -0.417055D-03 -0.547620D-03  0.000000D+00
     23  0.130845D-03  0.000000D+00  0.281576D-03  0.369727D-03  0.000000D+00
     24  0.000000D+00  0.000000D+00  0.000000D+00  0.000000D+00  0.000000D+00
               16            17            18            19            20 
     16  0.309018D+00
     17 -0.317433D-02  0.529816D-01
     18 -0.750546D-01  0.190375D-02  0.828090D-01
     19 -0.470186D-02  0.284301D-01 -0.168543D-01  0.919413D-01
     20 -0.933865D-03  0.583746D-02 -0.335604D-02 -0.839524D-01  0.254640D+00
     21  0.211477D-02 -0.124169D-01  0.756412D-02  0.458630D-01 -0.992902D-01
     22 -0.567762D-02 -0.254186D-01 -0.176881D-01  0.123721D-01  0.106636D-01
     23  0.195456D-02  0.911951D-02  0.607280D-02 -0.156825D-01 -0.139239D-01
     24  0.324732D-02  0.139003D-01  0.101452D-01  0.126689D-01  0.116230D-01
               21            22            23            24 
     21  0.110910D+00
     22  0.103626D-01  0.132593D+00
     23 -0.139254D-01  0.114976D+00  0.226648D+00
     24  0.119768D-01  0.655426D-01  0.946842D-01  0.118905D+00
 Force constants in internal coordinates: 
                1             2             3             4             5 
      1  0.288511D+00
      2  0.000000D+00  0.328735D+00
      3  0.000000D+00  0.000000D+00  0.299578D+00
      4  0.000000D+00  0.000000D+00  0.000000D+00  0.354990D+00
      5  0.000000D+00  0.000000D+00  0.000000D+00  0.000000D+00  0.331701D+00
      6  0.000000D+00  0.000000D+00  0.000000D+00  0.000000D+00  0.000000D+00
      7  0.000000D+00  0.000000D+00  0.000000D+00  0.000000D+00  0.000000D+00
      8  0.000000D+00  0.000000D+00  0.000000D+00  0.000000D+00  0.000000D+00
      9  0.000000D+00  0.000000D+00  0.000000D+00  0.000000D+00  0.000000D+00
     10  0.000000D+00  0.000000D+00  0.000000D+00  0.000000D+00  0.000000D+00
     11  0.000000D+00  0.000000D+00  0.000000D+00  0.000000D+00  0.000000D+00
     12  0.000000D+00  0.000000D+00  0.000000D+00  0.000000D+00  0.000000D+00
     13  0.000000D+00  0.000000D+00  0.000000D+00  0.000000D+00  0.000000D+00
     14  0.000000D+00  0.000000D+00  0.000000D+00  0.000000D+00  0.000000D+00
     15  0.000000D+00  0.000000D+00  0.000000D+00  0.000000D+00  0.000000D+00
     16  0.000000D+00  0.000000D+00  0.000000D+00  0.000000D+00  0.000000D+00
     17  0.000000D+00  0.000000D+00  0.000000D+00  0.000000D+00  0.000000D+00
     18  0.000000D+00  0.000000D+00  0.000000D+00  0.000000D+00  0.000000D+00
                6             7             8             9            10 
      6  0.341927D+00
      7  0.000000D+00  0.359053D+00
      8  0.000000D+00  0.000000D+00  0.276571D+00
      9  0.000000D+00  0.000000D+00  0.272247D-01  0.229998D+00
     10  0.000000D+00  0.000000D+00  0.937468D-01  0.303334D-01  0.276234D+00
     11  0.000000D+00  0.000000D+00  0.000000D+00  0.000000D+00  0.000000D+00
     12  0.000000D+00  0.000000D+00  0.000000D+00  0.000000D+00  0.000000D+00
     13  0.000000D+00  0.000000D+00  0.000000D+00  0.000000D+00  0.000000D+00
     14  0.000000D+00  0.000000D+00 -0.507027D-01  0.341197D-02  0.513173D-01
     15  0.000000D+00  0.000000D+00  0.699377D-01 -0.649451D-01  0.175963D-01
     16  0.000000D+00  0.000000D+00  0.000000D+00  0.000000D+00  0.000000D+00
     17  0.000000D+00  0.000000D+00  0.000000D+00  0.000000D+00  0.000000D+00
     18  0.000000D+00  0.000000D+00  0.000000D+00  0.000000D+00  0.000000D+00
               11            12            13            14            15 
     11  0.262186D+00
     12  0.377722D-01  0.253538D+00
     13  0.501023D-01  0.621251D-01  0.265660D+00
     14  0.000000D+00  0.000000D+00  0.000000D+00  0.241727D+00
     15  0.000000D+00  0.000000D+00  0.000000D+00 -0.114170D+00  0.190483D+00
     16  0.380803D-04 -0.537949D-04  0.859903D-04  0.858140D-02  0.858140D-02
     17 -0.685739D-01  0.123320D-01  0.687880D-01  0.286047D-02  0.286047D-02
     18  0.725089D-01 -0.690846D-01 -0.558751D-02  0.286047D-02  0.286047D-02
               16            17            18 
     16  0.257702D-01
     17  0.852950D-02  0.197449D+00
     18  0.840380D-02 -0.828787D-01  0.187878D+00
 Leave Link  716 at Wed May 26 19:16:52 2021, MaxMem=   13107200 cpu:       0.0
 (Enter /programs/64bit/g09/g09-gfortran/bin/l103.exe)

 GradGradGradGradGradGradGradGradGradGradGradGradGradGradGradGradGradGrad
 Berny optimization.
 Search for a local minimum.
 Step number   1 out of a maximum of    2
 All quantities printed in internal units (Hartrees-Bohrs-Radians)
 Second derivative matrix not updated -- first step.
 The second derivative matrix:
                          d1        a1        t1        d2        a2
           d1           0.28851
           a1           0.00000   0.27657
           t1           0.00000  -0.05070   0.24173
           d2           0.00000  -0.00000  -0.00000   0.32874
           a2          -0.00000   0.02722   0.00341   0.00000   0.23000
           t2           0.00000   0.06994  -0.11417   0.00000  -0.06495
           d3           0.00000   0.00000   0.00000  -0.00000   0.00000
           d4          -0.00000   0.00000  -0.00000   0.00000   0.00000
           a3           0.00000   0.09375   0.05132  -0.00000   0.03033
           d5           0.00000   0.00000   0.00000   0.00000  -0.00000
           a4          -0.00000   0.00000  -0.00000   0.00000  -0.00000
           t3           0.00000   0.00000   0.00858   0.00000   0.00000
           d6           0.00000   0.00000  -0.00000   0.00000   0.00000
           a5           0.00000   0.00000   0.00000   0.00000  -0.00000
           t4           0.00000   0.00000   0.00286   0.00000   0.00000
           d7           0.00000   0.00000  -0.00000   0.00000   0.00000
           a6           0.00000   0.00000   0.00000   0.00000  -0.00000
           t5          -0.00000   0.00000   0.00286   0.00000   0.00000
                          t2        d3        d4        a3        d5
           t2           0.19048
           d3          -0.00000   0.29958
           d4          -0.00000  -0.00000   0.35499
           a3           0.01760  -0.00000   0.00000   0.27623
           d5           0.00000  -0.00000  -0.00000  -0.00000   0.33170
           a4          -0.00000   0.00000   0.00000   0.00000   0.00000
           t3           0.00858   0.00000   0.00000  -0.00000   0.00000
           d6          -0.00000  -0.00000   0.00000  -0.00000  -0.00000
           a5           0.00000   0.00000  -0.00000   0.00000  -0.00000
           t4           0.00286   0.00000   0.00000  -0.00000   0.00000
           d7           0.00000  -0.00000  -0.00000   0.00000  -0.00000
           a6           0.00000   0.00000  -0.00000   0.00000  -0.00000
           t5           0.00286   0.00000  -0.00000   0.00000  -0.00000
                          a4        t3        d6        a5        t4
           a4           0.26219
           t3           0.00004   0.02577
           d6           0.00000  -0.00000   0.34193
           a5           0.03777  -0.00005   0.00000   0.25354
           t4          -0.06857   0.00853  -0.00000   0.01233   0.19745
           d7           0.00000   0.00000   0.00000   0.00000   0.00000
           a6           0.05010   0.00009   0.00000   0.06213   0.06879
           t5           0.07251   0.00840  -0.00000  -0.06908  -0.08288
                          d7        a6        t5
           d7           0.35905
           a6           0.00000   0.26566
           t5           0.00000  -0.00559   0.18788
     Eigenvalues --- 1000.000001000.000001000.000001000.000001000.00000
     Eigenvalues --- 1000.000001000.000001000.000001000.000001000.00000
     Eigenvalues --- 1000.000001000.000001000.000001000.000001000.00000
     Eigenvalues --- 1000.000001000.000001000.00000
 Angle between quadratic step and forces=  90.00 degrees.
 Linear search not attempted -- first point.
 Variable       Old X    -DE/DX   Delta X   Delta X   Delta X     New X
                                 (Linear)    (Quad)   (Total)
    d1        2.90315  -0.00146   0.00000   0.00000   0.00000   2.90315
    a1        1.95587   0.01390   0.00000   0.00000   0.00000   1.95587
    t1        1.88732   0.00127   0.00000   0.00000   0.00000   1.88732
    d2        2.09274  -0.00920   0.00000   0.00000   0.00000   2.09274
    a2        1.84438  -0.00248   0.00000   0.00000   0.00000   1.84438
    t2       -2.49072   0.03727   0.00000   0.00000   0.00000  -2.49072
    d3        2.14748  -0.01660   0.00000   0.00000   0.00000   2.14748
    d4        2.04872   0.00421   0.00000   0.00000   0.00000   2.04872
    a3        1.99134   0.00503   0.00000   0.00000   0.00000   1.99134
    d5        2.08754  -0.00431   0.00000   0.00000   0.00000   2.08754
    a4        1.86375   0.01115   0.00000   0.00000   0.00000   1.86375
    t3        3.12814   0.00477   0.00000   0.00000   0.00000   3.12814
    d6        2.07006   0.00104   0.00000   0.00000   0.00000   2.07006
    a5        2.01283  -0.01963   0.00000   0.00000   0.00000   2.01283
    t4        1.99064   0.00567   0.00000   0.00000   0.00000   1.99064
    d7        2.04230   0.00946   0.00000   0.00000   0.00000   2.04230
    a6        2.01790  -0.00851   0.00000   0.00000   0.00000   2.01790
    t5       -2.15120   0.01172   0.00000   0.00000   0.00000  -2.15120
         Item               Value     Threshold  Converged?
 Maximum Force            0.000000     0.000450     YES
 RMS     Force            0.000000     0.000300     YES
 Maximum Displacement     0.000000     0.001800     YES
 RMS     Displacement     0.000000     0.001200     YES
 Predicted change in Energy=-0.000000D+00
 Optimization completed.
    -- Stationary point found.
                       ----------------------------
                       !   Optimized Parameters   !
                       ! (Angstroms and Degrees)  !
 ----------------------                            ----------------------
 !      Name          Value   Derivative information (Atomic Units)     !
 ------------------------------------------------------------------------
 !       d1          1.5363   -DE/DX =   -0.0015                        !
 !       a1        112.0633   -DE/DX =    0.0139                        !
 !       t1        108.1353   -DE/DX =    0.0013                        !
 !       d2          1.1074   -DE/DX =   -0.0092                        !
 !       a2        105.675    -DE/DX =   -0.0025                        !
 !       t2       -142.7079   -DE/DX =    0.0373                        !
 !       d3          1.1364   -DE/DX =   -0.0166                        !
 !       d4          1.0841   -DE/DX =    0.0042                        !
 !       a3        114.0954   -DE/DX =    0.005                         !
 !       d5          1.1047   -DE/DX =   -0.0043                        !
 !       a4        106.7849   -DE/DX =    0.0112                        !
 !       t3        179.2295   -DE/DX =    0.0048                        !
 !       d6          1.0954   -DE/DX =    0.001                         !
 !       a5        115.3267   -DE/DX =   -0.0196                        !
 !       t4        114.0554   -DE/DX =    0.0057                        !
 !       d7          1.0807   -DE/DX =    0.0095                        !
 !       a6        115.6171   -DE/DX =   -0.0085                        !
 !       t5       -123.2548   -DE/DX =    0.0117                        !
 ------------------------------------------------------------------------
 GradGradGradGradGradGradGradGradGradGradGradGradGradGradGradGradGradGrad

 Leave Link  103 at Wed May 26 19:16:52 2021, MaxMem=   13107200 cpu:       0.0
 (Enter /programs/64bit/g09/g09-gfortran/bin/l9999.exe)
 1\1\GINC-MOLMOD\Force\RB3LYP\6-31+G(d,p)\C2H6\OSPITE\26-May-2021\1\\#p
  b3lyp/6-31+g(d,p) force nosym\\c2h6 molecule\\0,1\C\C,1,d1\H,1,d2,2,a
 1\H,1,d3,2,a2,3,t1,0\H,1,d4,2,a3,3,t2,0\H,2,d5,1,a4,3,t3,0\H,2,d6,1,a5
 ,6,t4,0\H,2,d7,1,a6,6,t5,0\\d1=1.53627893\a1=112.06333405\t1=108.13533
 068\d2=1.10743114\a2=105.67501252\t2=-142.70788982\d3=1.13639576\d4=1.
 08413782\a3=114.09538824\d5=1.10467704\a4=106.78489019\t3=179.22945469
 \d6=1.09542915\a5=115.32671263\t4=114.05541687\d7=1.08073783\a6=115.61
 71474\t5=-123.25479334\\Version=EM64L-G09RevA.02\HF=-79.8308235\RMSD=5
 .777e-09\RMSF=1.490e-02\Dipole=-0.0216782,-0.0497273,0.0066941\Quadrup
 ole=0.4108417,-0.1579467,-0.252895,-0.1061559,0.1503852,-0.0783993\PG=
 C01 [X(C2H6)]\\@


 A leading authority is anyone who has guessed right more than once.
 -- Frank A. Clark
 Job cpu time:  0 days  0 hours  0 minutes 17.9 seconds.
 File lengths (MBytes):  RWF=      5 Int=      0 D2E=      0 Chk=      1 Scr=      1
 Normal termination of Gaussian 09 at Wed May 26 19:16:52 2021.
