 Entering Gaussian System, Link 0=g09
 Input=c2h6_009.com
 Output=c2h6_009.log
 Initial command:
 /programs/64bit/g09/g09-gfortran/bin/l1.exe /data/scratch/Gau-6054.inp -scrdir=/data/scratch/
 Entering Link 1 = /programs/64bit/g09/g09-gfortran/bin/l1.exe PID=      6055.
  
 Copyright (c) 1988,1990,1992,1993,1995,1998,2003,2009, Gaussian, Inc.
                  All Rights Reserved.
  
 This is part of the Gaussian(R) 09 program.  It is based on
 the Gaussian(R) 03 system (copyright 2003, Gaussian, Inc.),
 the Gaussian(R) 98 system (copyright 1998, Gaussian, Inc.),
 the Gaussian(R) 94 system (copyright 1995, Gaussian, Inc.),
 the Gaussian 92(TM) system (copyright 1992, Gaussian, Inc.),
 the Gaussian 90(TM) system (copyright 1990, Gaussian, Inc.),
 the Gaussian 88(TM) system (copyright 1988, Gaussian, Inc.),
 the Gaussian 86(TM) system (copyright 1986, Carnegie Mellon
 University), and the Gaussian 82(TM) system (copyright 1983,
 Carnegie Mellon University). Gaussian is a federally registered
 trademark of Gaussian, Inc.
  
 This software contains proprietary and confidential information,
 including trade secrets, belonging to Gaussian, Inc.
  
 This software is provided under written license and may be
 used, copied, transmitted, or stored only in accord with that
 written license.
  
 The following legend is applicable only to US Government
 contracts under FAR:
  
                    RESTRICTED RIGHTS LEGEND
  
 Use, reproduction and disclosure by the US Government is
 subject to restrictions as set forth in subparagraphs (a)
 and (c) of the Commercial Computer Software - Restricted
 Rights clause in FAR 52.227-19.
  
 Gaussian, Inc.
 340 Quinnipiac St., Bldg. 40, Wallingford CT 06492
  
  
 ---------------------------------------------------------------
 Warning -- This program may not be used in any manner that
 competes with the business of Gaussian, Inc. or will provide
 assistance to any competitor of Gaussian, Inc.  The licensee
 of this program is prohibited from giving any competitor of
 Gaussian, Inc. access to this program.  By using this program,
 the user acknowledges that Gaussian, Inc. is engaged in the
 business of creating and licensing software in the field of
 computational chemistry and represents and warrants to the
 licensee that it is not a competitor of Gaussian, Inc. and that
 it will not use this program in any manner prohibited above.
 ---------------------------------------------------------------
  

 Cite this work as:
 Gaussian 09, Revision A.02,
 M. J. Frisch, G. W. Trucks, H. B. Schlegel, G. E. Scuseria, 
 M. A. Robb, J. R. Cheeseman, G. Scalmani, V. Barone, B. Mennucci, 
 G. A. Petersson, H. Nakatsuji, M. Caricato, X. Li, H. P. Hratchian, 
 A. F. Izmaylov, J. Bloino, G. Zheng, J. L. Sonnenberg, M. Hada, 
 M. Ehara, K. Toyota, R. Fukuda, J. Hasegawa, M. Ishida, T. Nakajima, 
 Y. Honda, O. Kitao, H. Nakai, T. Vreven, J. A. Montgomery, Jr., 
 J. E. Peralta, F. Ogliaro, M. Bearpark, J. J. Heyd, E. Brothers, 
 K. N. Kudin, V. N. Staroverov, R. Kobayashi, J. Normand, 
 K. Raghavachari, A. Rendell, J. C. Burant, S. S. Iyengar, J. Tomasi, 
 M. Cossi, N. Rega, J. M. Millam, M. Klene, J. E. Knox, J. B. Cross, 
 V. Bakken, C. Adamo, J. Jaramillo, R. Gomperts, R. E. Stratmann, 
 O. Yazyev, A. J. Austin, R. Cammi, C. Pomelli, J. W. Ochterski, 
 R. L. Martin, K. Morokuma, V. G. Zakrzewski, G. A. Voth, 
 P. Salvador, J. J. Dannenberg, S. Dapprich, A. D. Daniels, 
 O. Farkas, J. B. Foresman, J. V. Ortiz, J. Cioslowski, 
 and D. J. Fox, Gaussian, Inc., Wallingford CT, 2009.
 
 ******************************************
 Gaussian 09:  EM64L-G09RevA.02 11-Jun-2009
                26-May-2021 
 ******************************************
 %chk=c2h6_009.chk
 %mem=100MB
 --------------------------------
 #p b3lyp/6-31+g(d,p) force nosym
 --------------------------------
 1/10=7,30=1,38=1/1,3;
 2/12=2,15=1,17=6,18=5,40=1/2;
 3/5=1,6=6,7=111,11=2,16=1,25=1,30=1,71=1,74=-5/1,2,3;
 4//1;
 5/5=2,38=5/2;
 6/7=2,8=2,9=2,10=2,28=1/1;
 7/29=1,30=1/1,2,3,16;
 1/10=7,30=1/3;
 99//99;
 Leave Link    1 at Wed May 26 19:09:09 2021, MaxMem=   13107200 cpu:       0.0
 (Enter /programs/64bit/g09/g09-gfortran/bin/l101.exe)
 -------------
 c2h6 molecule
 -------------
 Symbolic Z-matrix:
 Charge =  0 Multiplicity = 1
 C1
 C2                   1    d1
 H3                   1    d2       2    a1
 H4                   1    d3       2    a2       3    t1       0
 H5                   1    d4       2    a3       3    t2       0
 H6                   2    d5       1    a4       3    t3       0
 H7                   2    d6       1    a5       6    t4       0
 H8                   2    d7       1    a6       6    t5       0
       Variables:
       Constants:
  d1                    1.                       
  a1                  178.20267                  
  t1                  119.40129                  
  d2                    1.3182                   
  a2                  109.38774                  
  t2                 -178.39809                  
  d3                    1.                       
  d4                    1.13004                  
  a3                  108.33565                  
  d5                    1.04731                  
  a4                  108.46035                  
  t3                  179.99572                  
  d6                    1.09348                  
  a5                  108.46177                  
  t4                  120.10753                  
  d7                    1.59562                  
  a6                  178.4103                   
  t5                 -120.                       
 
 NAtoms=      8 NQM=      8 NQMF=      0 NMic=      0 NMicF=      0 NTot=      8.
                    Isotopes and Nuclear Properties:
 (Nuclear quadrupole moments (NQMom) in fm**2, nuclear magnetic moments (NMagM)
  in nuclear magnetons)

  Atom         1           2           3           4           5           6           7           8
 IAtWgt=          12          12           1           1           1           1           1           1
 AtmWgt=  12.0000000  12.0000000   1.0078250   1.0078250   1.0078250   1.0078250   1.0078250   1.0078250
 NucSpn=           0           0           1           1           1           1           1           1
 AtZEff=   0.0000000   0.0000000   0.0000000   0.0000000   0.0000000   0.0000000   0.0000000   0.0000000
 NQMom=    0.0000000   0.0000000   0.0000000   0.0000000   0.0000000   0.0000000   0.0000000   0.0000000
 NMagM=    0.0000000   0.0000000   2.7928460   2.7928460   2.7928460   2.7928460   2.7928460   2.7928460
 Leave Link  101 at Wed May 26 19:09:09 2021, MaxMem=   13107200 cpu:       0.0
 (Enter /programs/64bit/g09/g09-gfortran/bin/l103.exe)

 GradGradGradGradGradGradGradGradGradGradGradGradGradGradGradGradGradGrad
 Berny optimization.
 Initialization pass.
                       ----------------------------
                       !    Initial Parameters    !
                       ! (Angstroms and Degrees)  !
 ----------------------                            ----------------------
 !      Name          Value   Derivative information (Atomic Units)     !
 ------------------------------------------------------------------------
 !       d1          1.0      Frozen                                    !
 !       a1        178.2027   Frozen                                    !
 !       t1        119.4013   Frozen                                    !
 !       d2          1.3182   Frozen                                    !
 !       a2        109.3877   Frozen                                    !
 !       t2       -178.3981   Frozen                                    !
 !       d3          1.0      Frozen                                    !
 !       d4          1.13     Frozen                                    !
 !       a3        108.3357   Frozen                                    !
 !       d5          1.0473   Frozen                                    !
 !       a4        108.4604   Frozen                                    !
 !       t3        179.9957   Frozen                                    !
 !       d6          1.0935   Frozen                                    !
 !       a5        108.4618   Frozen                                    !
 !       t4        120.1075   Frozen                                    !
 !       d7          1.5956   Frozen                                    !
 !       a6        178.4103   Frozen                                    !
 !       t5       -120.0      Frozen                                    !
 ------------------------------------------------------------------------
 Trust Radius=3.00D-01 FncErr=1.00D-07 GrdErr=1.00D-07
 Number of steps in this run=   2 maximum allowed number of steps=   2.
 GradGradGradGradGradGradGradGradGradGradGradGradGradGradGradGradGradGrad

 Leave Link  103 at Wed May 26 19:09:10 2021, MaxMem=   13107200 cpu:       0.0
 (Enter /programs/64bit/g09/g09-gfortran/bin/l202.exe)
                          Input orientation:                          
 ---------------------------------------------------------------------
 Center     Atomic      Atomic             Coordinates (Angstroms)
 Number     Number       Type             X           Y           Z
 ---------------------------------------------------------------------
      1          6           0        0.000000    0.000000    0.000000
      2          6           0        0.000000    0.000000    1.000000
      3          1           0        0.041344    0.000000   -1.317548
      4          1           0       -0.463085   -0.821800   -0.331959
      5          1           0       -1.072246    0.029986   -0.355491
      6          1           0       -0.993417    0.000074    1.331628
      7          1           0        0.520219   -0.897307    1.346274
      8          1           0        0.022136    0.038333    2.595008
 ---------------------------------------------------------------------
                    Distance matrix (angstroms):
                    1          2          3          4          5
     1  C    0.000000
     2  C    1.000000   0.000000
     3  H    1.318196   2.317917   0.000000
     4  H    1.000000   1.632152   1.378836   0.000000
     5  H    1.130038   1.728574   1.471916   1.047459   0.000000
     6  H    1.661358   1.047308   2.844093   1.929832   1.689225
     7  H    1.699482   1.093477   2.851390   1.946549   2.508350
     8  H    2.595385   1.595622   3.912791   3.089079   3.146933
                    6          7          8
     6  H    0.000000
     7  H    1.759716   0.000000
     8  H    1.621400   1.637940   0.000000
 Symmetry turned off by external request.
 Stoichiometry    C2H6
 Framework group  C1[X(C2H6)]
 Deg. of freedom    18
 Full point group                 C1      NOp   1
 Rotational constants (GHZ):    130.9271211     28.0469141     26.3668018
 Leave Link  202 at Wed May 26 19:09:10 2021, MaxMem=   13107200 cpu:       0.0
 (Enter /programs/64bit/g09/g09-gfortran/bin/l301.exe)
 Standard basis: 6-31+G(d,p) (6D, 7F)
 Ernie: Thresh=  0.10000D-02 Tol=  0.10000D-05 Strict=F.
 Integral buffers will be    131072 words long.
 Raffenetti 2 integral format.
 Two-electron integral symmetry is turned off.
    68 basis functions,   106 primitive gaussians,    68 cartesian basis functions
     9 alpha electrons        9 beta electrons
       nuclear repulsion energy        49.6388888955 Hartrees.
 IExCor=  402 DFT=T Ex+Corr=B3LYP ExCW=0 ScaHFX=  0.200000
 ScaDFX=  0.800000  0.720000  1.000000  0.810000 ScalE2=  1.000000  1.000000
 IRadAn=      0 IRanWt=     -1 IRanGd=            0 ICorTp=0
 NAtoms=    8 NActive=    8 NUniq=    8 SFac= 7.50D-01 NAtFMM=   80 NAOKFM=F Big=F
 Leave Link  301 at Wed May 26 19:09:10 2021, MaxMem=   13107200 cpu:       0.0
 (Enter /programs/64bit/g09/g09-gfortran/bin/l302.exe)
 NPDir=0 NMtPBC=     1 NCelOv=     1 NCel=       1 NClECP=     1 NCelD=      1
         NCelK=      1 NCelE2=     1 NClLst=     1 CellRange=     0.0.
 One-electron integrals computed using PRISM.
 NBasis=    68 RedAO= T  NBF=    68
 NBsUse=    68 1.00D-06 NBFU=    68
 Precomputing XC quadrature grid using
 IXCGrd= 2 IRadAn=           0 IRanWt=          -1 IRanGd=           0 AccXCQ= 1.00D-10.
 NRdTot=     510 NPtTot=       64808 NUsed=       68495 NTot=       68527
 NSgBfM=    68    68    68    68    68 NAtAll=     8     8.
 Leave Link  302 at Wed May 26 19:09:10 2021, MaxMem=   13107200 cpu:       0.1
 (Enter /programs/64bit/g09/g09-gfortran/bin/l303.exe)
 DipDrv:  MaxL=1.
 Leave Link  303 at Wed May 26 19:09:10 2021, MaxMem=   13107200 cpu:       0.0
 (Enter /programs/64bit/g09/g09-gfortran/bin/l401.exe)
 Harris functional with IExCor=  402 diagonalized for initial guess.
 ExpMin= 4.38D-02 ExpMax= 3.05D+03 ExpMxC= 4.57D+02 IAcc=2 IRadAn=         0 AccDes= 0.00D+00
 HarFok:  IExCor=  402 AccDes= 0.00D+00 IRadAn=         0 IDoV= 1
 ScaDFX=  1.000000  1.000000  1.000000  1.000000
 FoFCou: FMM=F IPFlag=           0 FMFlag=      100000 FMFlg1=           0
         NFxFlg=           0 DoJE=T BraDBF=F KetDBF=T FulRan=T
         Omega=  0.000000  0.000000  1.000000  0.000000  0.000000 ICntrl=     500 IOpCl=  0
         NMat0=    1 NMatS0=    1 NMatT0=    0 NMatD0=    1 NMtDS0=    0 NMtDT0=    0
         I1Cent=           4 NGrid=           0.
 Symmetry not used in FoFCou.
 Harris En= -79.3092956208137    
 Leave Link  401 at Wed May 26 19:09:10 2021, MaxMem=   13107200 cpu:       0.7
 (Enter /programs/64bit/g09/g09-gfortran/bin/l502.exe)
 Closed shell SCF:
 Requested convergence on RMS density matrix=1.00D-08 within 128 cycles.
 Requested convergence on MAX density matrix=1.00D-06.
 Requested convergence on             energy=1.00D-06.
 No special actions if energy rises.
 Using DIIS extrapolation, IDIIS=  1040.
 Two-electron integral symmetry not used.
        68410 words used for storage of precomputed grid.
 Keep R1 ints in memory in canonical form, NReq=3742795.
 IEnd=      101260 IEndB=      101260 NGot=    13107200 MDV=    10274214
 LenX=    10274214 LenY=    10269149
 Symmetry not used in FoFDir.
 MinBra= 0 MaxBra= 2 Meth= 1.
 IRaf=       0 NMat=   1 IRICut=       1 DoRegI=T DoRafI=F ISym2E= 0 JSym2E=0.

 Cycle   1  Pass 1  IDiag  1:
 E= -78.5940438596680    
 DIIS: error= 7.52D-02 at cycle   1 NSaved=   1.
 NSaved= 1 IEnMin= 1 EnMin= -78.5940438596680     IErMin= 1 ErrMin= 7.52D-02
 ErrMax= 7.52D-02 EMaxC= 1.00D-01 BMatC= 5.00D-01 BMatP= 5.00D-01
 IDIUse=3 WtCom= 2.48D-01 WtEn= 7.52D-01
 Coeff-Com:  0.100D+01
 Coeff-En:   0.100D+01
 Coeff:      0.100D+01
 Gap=    -0.056 Goal=   None    Shift=    0.000
 GapD=   -0.056 DampG=0.250 DampE=0.500 DampFc=0.2500 IDamp=-1.
 Damping current iteration by 2.50D-01
 RMSDP=3.47D+00 MaxDP=1.13D+02              OVMax= 5.60D-01

 Cycle   2  Pass 1  IDiag  1:
 E= -78.7933063205062     Delta-E=       -0.199262460838 Rises=F Damp=T
 DIIS: error= 2.38D-02 at cycle   2 NSaved=   2.
 NSaved= 2 IEnMin= 2 EnMin= -78.7933063205062     IErMin= 2 ErrMin= 2.38D-02
 ErrMax= 2.38D-02 EMaxC= 1.00D-01 BMatC= 5.41D-02 BMatP= 5.00D-01
 IDIUse=3 WtCom= 7.62D-01 WtEn= 2.38D-01
 Coeff-Com: -0.448D+00 0.145D+01
 Coeff-En:   0.000D+00 0.100D+01
 Coeff:     -0.341D+00 0.134D+01
 Gap=     0.211 Goal=   None    Shift=    0.000
 RMSDP=5.69D-01 MaxDP=1.85D+01 DE=-1.99D-01 OVMax= 3.99D-01

 Cycle   3  Pass 1  IDiag  1:
 E= -79.0990923364618     Delta-E=       -0.305786015956 Rises=F Damp=F
 DIIS: error= 6.55D-03 at cycle   3 NSaved=   3.
 NSaved= 3 IEnMin= 3 EnMin= -79.0990923364618     IErMin= 3 ErrMin= 6.55D-03
 ErrMax= 6.55D-03 EMaxC= 1.00D-01 BMatC= 5.83D-03 BMatP= 5.41D-02
 IDIUse=3 WtCom= 9.35D-01 WtEn= 6.55D-02
 Coeff-Com:  0.280D-01 0.140D+00 0.832D+00
 Coeff-En:   0.000D+00 0.000D+00 0.100D+01
 Coeff:      0.262D-01 0.131D+00 0.843D+00
 Gap=     0.125 Goal=   None    Shift=    0.000
 RMSDP=4.83D-02 MaxDP=1.45D+00 DE=-3.06D-01 OVMax= 1.61D-01

 Cycle   4  Pass 1  IDiag  1:
 E= -79.0987905449444     Delta-E=        0.000301791517 Rises=F Damp=F
 DIIS: error= 5.67D-03 at cycle   4 NSaved=   4.
 NSaved= 4 IEnMin= 3 EnMin= -79.0990923364618     IErMin= 4 ErrMin= 5.67D-03
 ErrMax= 5.67D-03 EMaxC= 1.00D-01 BMatC= 4.04D-03 BMatP= 5.83D-03
 IDIUse=3 WtCom= 9.43D-01 WtEn= 5.67D-02
 Coeff-Com:  0.646D-01-0.112D+00 0.580D+00 0.468D+00
 Coeff-En:   0.000D+00 0.000D+00 0.507D+00 0.493D+00
 Coeff:      0.610D-01-0.106D+00 0.576D+00 0.469D+00
 Gap=     0.126 Goal=   None    Shift=    0.000
 RMSDP=4.55D-02 MaxDP=1.45D+00 DE= 3.02D-04 OVMax= 9.61D-02

 Cycle   5  Pass 1  IDiag  1:
 E= -79.1076675036834     Delta-E=       -0.008876958739 Rises=F Damp=F
 DIIS: error= 6.10D-04 at cycle   5 NSaved=   5.
 NSaved= 5 IEnMin= 5 EnMin= -79.1076675036834     IErMin= 5 ErrMin= 6.10D-04
 ErrMax= 6.10D-04 EMaxC= 1.00D-01 BMatC= 4.38D-05 BMatP= 4.04D-03
 IDIUse=3 WtCom= 9.94D-01 WtEn= 6.10D-03
 Coeff-Com:  0.169D-01-0.276D-01 0.725D-01 0.989D-01 0.839D+00
 Coeff-En:   0.000D+00 0.000D+00 0.000D+00 0.000D+00 0.100D+01
 Coeff:      0.168D-01-0.275D-01 0.721D-01 0.983D-01 0.840D+00
 Gap=     0.128 Goal=   None    Shift=    0.000
 RMSDP=1.10D-02 MaxDP=3.54D-01 DE=-8.88D-03 OVMax= 4.77D-03

 Cycle   6  Pass 1  IDiag  1:
 E= -79.1077313671348     Delta-E=       -0.000063863451 Rises=F Damp=F
 DIIS: error= 9.57D-05 at cycle   6 NSaved=   6.
 NSaved= 6 IEnMin= 6 EnMin= -79.1077313671348     IErMin= 6 ErrMin= 9.57D-05
 ErrMax= 9.57D-05 EMaxC= 1.00D-01 BMatC= 9.47D-07 BMatP= 4.38D-05
 IDIUse=1 WtCom= 1.00D+00 WtEn= 0.00D+00
 Coeff-Com:  0.394D-02-0.556D-02 0.110D-01 0.178D-01 0.166D+00 0.806D+00
 Coeff:      0.394D-02-0.556D-02 0.110D-01 0.178D-01 0.166D+00 0.806D+00
 Gap=     0.128 Goal=   None    Shift=    0.000
 RMSDP=5.88D-04 MaxDP=1.86D-02 DE=-6.39D-05 OVMax= 3.29D-04

 Cycle   7  Pass 1  IDiag  1:
 E= -79.1077322563335     Delta-E=       -0.000000889199 Rises=F Damp=F
 DIIS: error= 2.07D-05 at cycle   7 NSaved=   7.
 NSaved= 7 IEnMin= 7 EnMin= -79.1077322563335     IErMin= 7 ErrMin= 2.07D-05
 ErrMax= 2.07D-05 EMaxC= 1.00D-01 BMatC= 8.51D-08 BMatP= 9.47D-07
 IDIUse=1 WtCom= 1.00D+00 WtEn= 0.00D+00
 Coeff-Com:  0.668D-03-0.778D-03 0.107D-02 0.173D-02 0.396D-02 0.232D+00
 Coeff-Com:  0.761D+00
 Coeff:      0.668D-03-0.778D-03 0.107D-02 0.173D-02 0.396D-02 0.232D+00
 Coeff:      0.761D+00
 Gap=     0.128 Goal=   None    Shift=    0.000
 RMSDP=2.31D-04 MaxDP=7.41D-03 DE=-8.89D-07 OVMax= 1.75D-04

 Cycle   8  Pass 1  IDiag  1:
 E= -79.1077323445245     Delta-E=       -0.000000088191 Rises=F Damp=F
 DIIS: error= 9.78D-06 at cycle   8 NSaved=   8.
 NSaved= 8 IEnMin= 8 EnMin= -79.1077323445245     IErMin= 8 ErrMin= 9.78D-06
 ErrMax= 9.78D-06 EMaxC= 1.00D-01 BMatC= 1.08D-08 BMatP= 8.51D-08
 IDIUse=1 WtCom= 1.00D+00 WtEn= 0.00D+00
 Coeff-Com: -0.287D-04 0.127D-03-0.432D-03-0.509D-03-0.104D-01 0.120D-01
 Coeff-Com:  0.300D+00 0.700D+00
 Coeff:     -0.287D-04 0.127D-03-0.432D-03-0.509D-03-0.104D-01 0.120D-01
 Coeff:      0.300D+00 0.700D+00
 Gap=     0.128 Goal=   None    Shift=    0.000
 RMSDP=3.87D-05 MaxDP=1.23D-03 DE=-8.82D-08 OVMax= 5.25D-05

 Cycle   9  Pass 1  IDiag  1:
 E= -79.1077323561836     Delta-E=       -0.000000011659 Rises=F Damp=F
 DIIS: error= 1.83D-06 at cycle   9 NSaved=   9.
 NSaved= 9 IEnMin= 9 EnMin= -79.1077323561836     IErMin= 9 ErrMin= 1.83D-06
 ErrMax= 1.83D-06 EMaxC= 1.00D-01 BMatC= 2.62D-10 BMatP= 1.08D-08
 IDIUse=1 WtCom= 1.00D+00 WtEn= 0.00D+00
 Coeff-Com: -0.331D-04 0.615D-04-0.215D-03-0.159D-03-0.216D-02-0.837D-02
 Coeff-Com:  0.515D-01 0.175D+00 0.785D+00
 Coeff:     -0.331D-04 0.615D-04-0.215D-03-0.159D-03-0.216D-02-0.837D-02
 Coeff:      0.515D-01 0.175D+00 0.785D+00
 Gap=     0.128 Goal=   None    Shift=    0.000
 RMSDP=1.88D-05 MaxDP=6.04D-04 DE=-1.17D-08 OVMax= 1.72D-05

 Cycle  10  Pass 1  IDiag  1:
 E= -79.1077323566682     Delta-E=       -0.000000000485 Rises=F Damp=F
 DIIS: error= 5.30D-07 at cycle  10 NSaved=  10.
 NSaved=10 IEnMin=10 EnMin= -79.1077323566682     IErMin=10 ErrMin= 5.30D-07
 ErrMax= 5.30D-07 EMaxC= 1.00D-01 BMatC= 3.12D-11 BMatP= 2.62D-10
 IDIUse=1 WtCom= 1.00D+00 WtEn= 0.00D+00
 Coeff-Com: -0.870D-05 0.391D-05-0.240D-04 0.472D-04 0.887D-03-0.398D-02
 Coeff-Com: -0.222D-01-0.540D-01 0.151D+00 0.928D+00
 Coeff:     -0.870D-05 0.391D-05-0.240D-04 0.472D-04 0.887D-03-0.398D-02
 Coeff:     -0.222D-01-0.540D-01 0.151D+00 0.928D+00
 Gap=     0.128 Goal=   None    Shift=    0.000
 RMSDP=3.25D-06 MaxDP=1.02D-04 DE=-4.85D-10 OVMax= 9.73D-06

 Cycle  11  Pass 1  IDiag  1:
 E= -79.1077323567428     Delta-E=       -0.000000000075 Rises=F Damp=F
 DIIS: error= 7.45D-08 at cycle  11 NSaved=  11.
 NSaved=11 IEnMin=11 EnMin= -79.1077323567428     IErMin=11 ErrMin= 7.45D-08
 ErrMax= 7.45D-08 EMaxC= 1.00D-01 BMatC= 6.80D-13 BMatP= 3.12D-11
 IDIUse=1 WtCom= 1.00D+00 WtEn= 0.00D+00
 Coeff-Com: -0.287D-05 0.434D-05-0.242D-05 0.512D-05 0.119D-03-0.121D-03
 Coeff-Com: -0.290D-02-0.101D-01-0.110D-01 0.847D-01 0.939D+00
 Coeff:     -0.287D-05 0.434D-05-0.242D-05 0.512D-05 0.119D-03-0.121D-03
 Coeff:     -0.290D-02-0.101D-01-0.110D-01 0.847D-01 0.939D+00
 Gap=     0.128 Goal=   None    Shift=    0.000
 RMSDP=5.69D-07 MaxDP=1.87D-05 DE=-7.47D-11 OVMax= 1.02D-06

 Cycle  12  Pass 1  IDiag  1:
 E= -79.1077323567440     Delta-E=       -0.000000000001 Rises=F Damp=F
 DIIS: error= 2.02D-08 at cycle  12 NSaved=  12.
 NSaved=12 IEnMin=12 EnMin= -79.1077323567440     IErMin=12 ErrMin= 2.02D-08
 ErrMax= 2.02D-08 EMaxC= 1.00D-01 BMatC= 5.75D-14 BMatP= 6.80D-13
 IDIUse=1 WtCom= 1.00D+00 WtEn= 0.00D+00
 Coeff-Com:  0.306D-07-0.345D-06 0.362D-06 0.129D-05-0.337D-05 0.176D-03
 Coeff-Com:  0.334D-03 0.506D-04-0.104D-01-0.195D-01 0.260D+00 0.769D+00
 Coeff:      0.306D-07-0.345D-06 0.362D-06 0.129D-05-0.337D-05 0.176D-03
 Coeff:      0.334D-03 0.506D-04-0.104D-01-0.195D-01 0.260D+00 0.769D+00
 Gap=     0.128 Goal=   None    Shift=    0.000
 RMSDP=1.18D-07 MaxDP=3.48D-06 DE=-1.19D-12 OVMax= 2.07D-07

 Cycle  13  Pass 1  IDiag  1:
 E= -79.1077323567437     Delta-E=        0.000000000000 Rises=F Damp=F
 DIIS: error= 4.12D-09 at cycle  13 NSaved=  13.
 NSaved=13 IEnMin=12 EnMin= -79.1077323567440     IErMin=13 ErrMin= 4.12D-09
 ErrMax= 4.12D-09 EMaxC= 1.00D-01 BMatC= 9.93D-16 BMatP= 5.75D-14
 IDIUse=1 WtCom= 1.00D+00 WtEn= 0.00D+00
 Coeff-Com: -0.105D-07-0.840D-08-0.145D-06-0.189D-06-0.626D-05 0.324D-04
 Coeff-Com:  0.122D-03 0.260D-03-0.236D-02-0.632D-02 0.400D-01 0.180D+00
 Coeff-Com:  0.789D+00
 Coeff:     -0.105D-07-0.840D-08-0.145D-06-0.189D-06-0.626D-05 0.324D-04
 Coeff:      0.122D-03 0.260D-03-0.236D-02-0.632D-02 0.400D-01 0.180D+00
 Coeff:      0.789D+00
 Gap=     0.128 Goal=   None    Shift=    0.000
 RMSDP=1.22D-08 MaxDP=3.02D-07 DE= 2.84D-13 OVMax= 2.01D-08

 Cycle  14  Pass 1  IDiag  1:
 E= -79.1077323567435     Delta-E=        0.000000000000 Rises=F Damp=F
 DIIS: error= 5.74D-10 at cycle  14 NSaved=  14.
 NSaved=14 IEnMin=12 EnMin= -79.1077323567440     IErMin=14 ErrMin= 5.74D-10
 ErrMax= 5.74D-10 EMaxC= 1.00D-01 BMatC= 3.64D-17 BMatP= 9.93D-16
 IDIUse=1 WtCom= 1.00D+00 WtEn= 0.00D+00
 Coeff-Com: -0.209D-08 0.883D-08 0.446D-08-0.311D-07-0.398D-06-0.240D-05
 Coeff-Com:  0.399D-05 0.359D-04 0.795D-04 0.202D-03-0.560D-02-0.548D-02
 Coeff-Com:  0.107D+00 0.904D+00
 Coeff:     -0.209D-08 0.883D-08 0.446D-08-0.311D-07-0.398D-06-0.240D-05
 Coeff:      0.399D-05 0.359D-04 0.795D-04 0.202D-03-0.560D-02-0.548D-02
 Coeff:      0.107D+00 0.904D+00
 Gap=     0.128 Goal=   None    Shift=    0.000
 RMSDP=1.32D-08 MaxDP=4.25D-07 DE= 2.27D-13 OVMax= 8.45D-09

 Cycle  15  Pass 1  IDiag  1:
 E= -79.1077323567433     Delta-E=        0.000000000000 Rises=F Damp=F
 DIIS: error= 9.26D-11 at cycle  15 NSaved=  15.
 NSaved=15 IEnMin=12 EnMin= -79.1077323567440     IErMin=15 ErrMin= 9.26D-11
 ErrMax= 9.26D-11 EMaxC= 1.00D-01 BMatC= 9.44D-19 BMatP= 3.64D-17
 IDIUse=1 WtCom= 1.00D+00 WtEn= 0.00D+00
 Coeff-Com:  0.119D-08-0.147D-08 0.185D-09 0.722D-08 0.108D-06-0.845D-06
 Coeff-Com: -0.210D-05-0.263D-05 0.412D-04 0.153D-03-0.134D-02-0.474D-02
 Coeff-Com: -0.139D-01 0.314D-01 0.988D+00
 Coeff:      0.119D-08-0.147D-08 0.185D-09 0.722D-08 0.108D-06-0.845D-06
 Coeff:     -0.210D-05-0.263D-05 0.412D-04 0.153D-03-0.134D-02-0.474D-02
 Coeff:     -0.139D-01 0.314D-01 0.988D+00
 Gap=     0.128 Goal=   None    Shift=    0.000
 RMSDP=1.95D-09 MaxDP=6.30D-08 DE= 1.71D-13 OVMax= 9.85D-10

 SCF Done:  E(RB3LYP) =  -79.1077323567     A.U. after   15 cycles
             Convg  =    0.1949D-08             -V/T =  1.9781
 KE= 8.087744014746D+01 PE=-2.826595844426D+02 EE= 7.303552304290D+01
 Leave Link  502 at Wed May 26 19:09:22 2021, MaxMem=   13107200 cpu:      10.8
 (Enter /programs/64bit/g09/g09-gfortran/bin/l601.exe)
 Copying SCF densities to generalized density rwf, IOpCl= 0 IROHF=0.

 **********************************************************************

            Population analysis using the SCF density.

 **********************************************************************

 Alpha  occ. eigenvalues --  -10.21897 -10.20410  -0.94145  -0.67182  -0.55061
 Alpha  occ. eigenvalues --   -0.52970  -0.43937  -0.24993  -0.19062
 Alpha virt. eigenvalues --   -0.06255  -0.02019  -0.00978   0.02448   0.05101
 Alpha virt. eigenvalues --    0.08583   0.09123   0.09640   0.11886   0.14933
 Alpha virt. eigenvalues --    0.15287   0.21851   0.23233   0.31779   0.54860
 Alpha virt. eigenvalues --    0.56747   0.58168   0.63755   0.68626   0.72719
 Alpha virt. eigenvalues --    0.82003   0.87778   0.92452   0.95605   0.96920
 Alpha virt. eigenvalues --    1.08767   1.10801   1.19131   1.31041   1.42341
 Alpha virt. eigenvalues --    1.52460   1.69029   1.82583   1.90203   1.94703
 Alpha virt. eigenvalues --    2.04681   2.07517   2.11269   2.15173   2.22047
 Alpha virt. eigenvalues --    2.24907   2.33138   2.37665   2.48365   2.52696
 Alpha virt. eigenvalues --    2.58892   2.74521   2.87665   2.94209   3.01503
 Alpha virt. eigenvalues --    3.10383   3.16694   3.26684   3.34529   3.56242
 Alpha virt. eigenvalues --    3.64872   4.13415   4.45960   4.96693
          Condensed to atoms (all electrons):
              1          2          3          4          5          6
     1  C   29.399232 -24.203942  -0.624688   2.204501   0.152538  -0.761147
     2  C  -24.203942  29.958840   1.005569  -2.005584   0.069148   1.143917
     3  H   -0.624688   1.005569   0.671569  -0.132553  -0.089511   0.015689
     4  H    2.204501  -2.005584  -0.132553   1.006890  -0.120773  -0.020988
     5  H    0.152538   0.069148  -0.089511  -0.120773   1.012228  -0.113114
     6  H   -0.761147   1.143917   0.015689  -0.020988  -0.113114   0.657738
     7  H   -1.220869   1.546071   0.005057  -0.104303   0.040765  -0.048085
     8  H    1.396420  -1.134390  -0.001821   0.020328  -0.002102  -0.047787
              7          8
     1  C   -1.220869   1.396420
     2  C    1.546071  -1.134390
     3  H    0.005057  -0.001821
     4  H   -0.104303   0.020328
     5  H    0.040765  -0.002102
     6  H   -0.048085  -0.047787
     7  H    0.757124  -0.098050
     8  H   -0.098050   0.795787
 Mulliken atomic charges:
              1
     1  C   -0.342045
     2  C   -0.379629
     3  H    0.150690
     4  H    0.152482
     5  H    0.050820
     6  H    0.173779
     7  H    0.122290
     8  H    0.071613
 Sum of Mulliken atomic charges =  -0.00000
 Mulliken charges with hydrogens summed into heavy atoms:
              1
     1  C    0.011947
     2  C   -0.011947
 Sum of Mulliken charges with hydrogens summed into heavy atoms =  -0.00000
 Electronic spatial extent (au):  <R**2>=            119.5801
 Charge=             -0.0000 electrons
 Dipole moment (field-independent basis, Debye):
    X=             -1.4609    Y=             -1.5938    Z=             -1.3927  Tot=              2.5718
 Quadrupole moment (field-independent basis, Debye-Ang):
   XX=            -15.7308   YY=            -16.6450   ZZ=            -20.8766
   XY=              0.6136   XZ=             -0.6016   YZ=             -1.1077
 Traceless Quadrupole moment (field-independent basis, Debye-Ang):
   XX=              2.0200   YY=              1.1058   ZZ=             -3.1258
   XY=              0.6136   XZ=             -0.6016   YZ=             -1.1077
 Octapole moment (field-independent basis, Debye-Ang**2):
  XXX=              2.5441  YYY=              1.1060  ZZZ=            -42.5871  XYY=              0.9814
  XXY=             -0.1432  XXZ=             -8.6993  XZZ=             -2.0193  YZZ=             -4.8216
  YYZ=            -10.0828  XYZ=             -0.7627
 Hexadecapole moment (field-independent basis, Debye-Ang**3):
 XXXX=            -32.1512 YYYY=            -28.3481 ZZZZ=           -192.8808 XXXY=              1.5621
 XXXZ=             -2.5561 YYYX=              1.1954 YYYZ=             -0.8285 ZZZX=             -4.6782
 ZZZY=            -11.1470 XXYY=            -10.1469 XXZZ=            -32.6317 YYZZ=            -33.5789
 XXYZ=              0.0592 YYXZ=             -0.4493 ZZXY=              0.0939
 N-N= 4.963888889552D+01 E-N=-2.826595844477D+02  KE= 8.087744014746D+01
 No NMR shielding tensors so no spin-rotation constants.
 Leave Link  601 at Wed May 26 19:09:22 2021, MaxMem=   13107200 cpu:       0.1
 (Enter /programs/64bit/g09/g09-gfortran/bin/l701.exe)
 Compute integral first derivatives.
 ... and contract with generalized density number  0.
 Leave Link  701 at Wed May 26 19:09:22 2021, MaxMem=   13107200 cpu:       0.1
 (Enter /programs/64bit/g09/g09-gfortran/bin/l702.exe)
 L702 exits ... SP integral derivatives will be done elsewhere.
 Leave Link  702 at Wed May 26 19:09:22 2021, MaxMem=   13107200 cpu:       0.0
 (Enter /programs/64bit/g09/g09-gfortran/bin/l703.exe)
 Compute integral first derivatives, UseDBF=F ICtDFT=           0.
 Integral derivatives from FoFDir, PRISM(SPDF).
 Calling FoFJK, ICntrl=      2127 FMM=F ISym2X=0 I1Cent= 0 IOpClX= 0 NMat=1 NMatS=1 NMatT=0.
 FoFCou: FMM=F IPFlag=           0 FMFlag=      100000 FMFlg1=         800
         NFxFlg=           0 DoJE=F BraDBF=F KetDBF=F FulRan=T
         Omega=  0.000000  0.000000  1.000000  0.000000  0.000000 ICntrl=    2127 IOpCl=  0
         NMat0=    1 NMatS0=    1 NMatT0=    0 NMatD0=    1 NMtDS0=    0 NMtDT0=    0
         I1Cent=           0 NGrid=           0.
 Symmetry not used in FoFCou.
 Leave Link  703 at Wed May 26 19:09:24 2021, MaxMem=   13107200 cpu:       1.8
 (Enter /programs/64bit/g09/g09-gfortran/bin/l716.exe)
 Dipole        =-5.74759226D-01-6.27045075D-01-5.47924740D-01
 -------------------------------------------------------------------
 Center     Atomic                   Forces (Hartrees/Bohr)
 Number     Number              X              Y              Z
 -------------------------------------------------------------------
      1        6          -0.087170796    0.070161251   -1.303465338
      2        6           0.046186401   -0.085159786    1.259688990
      3        1           0.067793795    0.036653754    0.045034401
      4        1          -0.003357432   -0.121141161   -0.024334092
      5        1          -0.030938772    0.065945080   -0.015283766
      6        1          -0.021197484   -0.011388913    0.038164087
      7        1           0.008763467   -0.008879629    0.025328692
      8        1           0.019920822    0.053809403   -0.025132975
 -------------------------------------------------------------------
 Cartesian Forces:  Max     1.303465338 RMS     0.373234030
 -----------------------------------------------------------------------------------------------
                       Internal Coordinate Forces (Hartree/Bohr or radian)
  Cent   Atom   N1       Length/X         N2         Alpha/Y        N3         Beta/Z          J
 -----------------------------------------------------------------------------------------------
      1  C 
      2  C        1   1.298049(     1)
      3  H        1  -0.042886(     2)      2  -0.172312(     8)
      4  H        1   0.109187(     3)      2  -0.023862(     9)      3  -0.100797(    14)     0
      5  H        1   0.035914(     4)      2   0.008967(    10)      3   0.131868(    15)     0
      6  H        2   0.032191(     5)      1   0.058361(    11)      3   0.028322(    16)     0
      7  H        2   0.019477(     6)      1   0.041742(    12)      6   0.006131(    17)     0
      8  H        2  -0.023554(     7)      1  -0.172581(    13)      6   0.000808(    18)     0
 -----------------------------------------------------------------------------------------------
 Internal  Forces:  Max     1.298048794 RMS     0.315842380
 Force constants in Cartesian coordinates: 
                1             2             3             4             5 
      1  0.597366D+02
      2 -0.688411D+02  0.255583D+03
      3  0.124825D+00  0.997986D-01  0.373914D+01
      4 -0.971335D+02  0.112078D+03  0.571680D-01  0.160023D+03
      5  0.760158D+02 -0.187369D+03  0.362285D-01 -0.124269D+03  0.154091D+03
      6 -0.204911D-01 -0.325726D-01 -0.332740D+01 -0.710320D-01 -0.992320D-01
      7 -0.990633D-01  0.465414D-02 -0.412895D-01  0.410337D-01 -0.391774D-02
      8  0.154587D+02 -0.930251D+02 -0.272509D-01 -0.248190D+02  0.621088D+02
      9  0.245106D-02  0.146045D-03 -0.178469D+00  0.128762D-02 -0.122937D-03
     10  0.358418D+00 -0.485146D+00 -0.713567D-01 -0.916923D+00  0.537363D+00
     11 -0.446441D+00 -0.163439D+00 -0.975582D-01  0.525047D+00 -0.287831D+00
     12 -0.600370D-01 -0.991824D-01 -0.135825D+00 -0.206967D-01 -0.370689D-01
     13 -0.300760D+00  0.151776D-01 -0.693470D-01  0.392727D-01 -0.148879D-01
     14 -0.621445D+00  0.228009D+00 -0.112179D-01  0.956672D+00 -0.520937D+00
     15 -0.672393D-01 -0.762188D-03 -0.974525D-01 -0.377589D-01  0.963326D-03
     16  0.135701D-01 -0.117908D-03  0.000000D+00 -0.371421D+00  0.722927D-02
     17 -0.249636D-01 -0.109237D+01  0.000000D+00 -0.166933D-01  0.494935D+00
     18  0.406559D-01 -0.108741D-03  0.000000D+00  0.931584D-01  0.214550D-01
     19  0.476199D-01  0.940553D+00  0.000000D+00 -0.187943D+00 -0.485669D+00
     20  0.200384D-01  0.558270D+00  0.000000D+00  0.820827D-01 -0.595585D+00
     21 -0.196150D-01  0.336340D-01  0.000000D+00 -0.219551D-01  0.780570D-01
     22  0.373771D+02 -0.437116D+02  0.000000D+00 -0.614939D+02  0.482136D+02
     23 -0.215605D+02  0.252809D+02  0.000000D+00  0.354638D+02 -0.279211D+02
     24 -0.549815D-03 -0.952648D-03  0.000000D+00 -0.171298D-03 -0.279979D-03
                6             7             8             9            10 
      6  0.366932D+01
      7  0.000000D+00  0.635227D-01
      8  0.000000D+00  0.751819D-02  0.362989D+02
      9  0.000000D+00 -0.356631D-02  0.235918D-03  0.177061D+00
     10  0.000000D+00  0.397455D-02 -0.971673D-02  0.124720D-03  0.198274D+00
     11  0.000000D+00 -0.880482D-02 -0.573178D-02 -0.276292D-03  0.130818D+00
     12  0.000000D+00  0.162527D-01  0.277445D-01  0.510004D-03  0.648082D-01
     13  0.000000D+00 -0.946763D-02  0.479734D-03 -0.297091D-03 -0.122590D-02
     14  0.000000D+00  0.550221D-03  0.850585D-02  0.172657D-04  0.323193D-01
     15  0.000000D+00  0.286031D-01 -0.729510D-03  0.897553D-03  0.642381D-02
     16  0.906214D-01  0.000000D+00  0.375899D-04  0.000000D+00  0.143535D-05
     17  0.313141D-01  0.000000D+00  0.503167D+00  0.000000D+00  0.192132D-01
     18 -0.131063D+00  0.000000D+00  0.000000D+00  0.000000D+00  0.000000D+00
     19 -0.118221D-01  0.000000D+00 -0.416926D+00  0.000000D+00 -0.159201D-01
     20  0.802560D-01  0.000000D+00 -0.241715D+00  0.000000D+00 -0.922975D-02
     21 -0.118408D+00  0.000000D+00  0.000000D+00  0.000000D+00  0.000000D+00
     22  0.127238D-01  0.000000D+00  0.977889D+01  0.000000D+00  0.373401D+00
     23  0.202345D-01  0.000000D+00 -0.564682D+01  0.000000D+00 -0.215620D+00
     24 -0.924527D-01  0.000000D+00  0.000000D+00  0.000000D+00  0.000000D+00
               11            12            13            14            15 
     11  0.361936D+00
     12  0.102072D+00  0.133785D+00
     13  0.822954D-03 -0.327169D-03  0.282268D+00
     14 -0.208112D-01  0.643459D-02 -0.739504D-02  0.977449D-01
     15 -0.423769D-02  0.152959D-02  0.699712D-01  0.476606D-02  0.950253D-01
     16  0.000000D+00  0.000000D+00  0.000000D+00 -0.144828D-05  0.000000D+00
     17 -0.108266D-01  0.000000D+00 -0.542152D-03 -0.193862D-01  0.000000D+00
     18  0.000000D+00  0.000000D+00  0.000000D+00  0.000000D+00  0.000000D+00
     19  0.897097D-02  0.000000D+00  0.449228D-03  0.160634D-01  0.000000D+00
     20  0.520097D-02  0.000000D+00  0.260443D-03  0.931287D-02  0.000000D+00
     21  0.000000D+00  0.000000D+00  0.000000D+00  0.000000D+00  0.000000D+00
     22 -0.210412D+00  0.000000D+00 -0.105365D-01 -0.376764D+00  0.000000D+00
     23  0.121502D+00  0.000000D+00  0.608432D-02  0.217562D+00  0.000000D+00
     24  0.000000D+00  0.000000D+00  0.000000D+00  0.000000D+00  0.000000D+00
               16            17            18            19            20 
     16  0.371308D+00
     17 -0.520669D-02  0.106085D+00
     18 -0.934936D-01 -0.155307D-01  0.122455D+00
     19 -0.496626D-02  0.289445D-01 -0.148833D-01  0.156968D+00
     20 -0.181743D-02  0.107567D-01 -0.544666D-02 -0.981296D-01  0.258372D+00
     21  0.275143D-02 -0.156103D-01  0.824561D-02  0.269068D-01 -0.748259D-01
     22 -0.849173D-02 -0.751941D-03 -0.254374D-01  0.379199D-02  0.679526D-02
     23 -0.122571D-03  0.763363D-02 -0.368880D-03  0.619235D-02 -0.461223D-02
     24  0.120795D-03 -0.173027D-03  0.361888D-03 -0.201449D-03  0.165423D-04
               21            22            23            24 
     21  0.109817D+00
     22  0.119119D-01  0.237586D+02
     23 -0.212547D-01 -0.136998D+02  0.794492D+01
     24  0.345510D-03  0.801766D-03  0.138911D-02  0.917453D-01
 Force constants in internal coordinates: 
                1             2             3             4             5 
      1  0.332740D+01
      2  0.000000D+00  0.177173D+00
      3  0.000000D+00  0.000000D+00  0.476883D+00
      4  0.000000D+00  0.000000D+00  0.000000D+00  0.305673D+00
      5  0.000000D+00  0.000000D+00  0.000000D+00  0.000000D+00  0.402519D+00
      6  0.000000D+00  0.000000D+00  0.000000D+00  0.000000D+00  0.000000D+00
      7  0.000000D+00  0.000000D+00  0.000000D+00  0.000000D+00  0.000000D+00
      8  0.000000D+00  0.000000D+00  0.000000D+00  0.000000D+00  0.000000D+00
      9  0.000000D+00  0.000000D+00  0.000000D+00  0.000000D+00  0.000000D+00
     10  0.000000D+00  0.000000D+00  0.000000D+00  0.000000D+00  0.000000D+00
     11  0.000000D+00  0.000000D+00  0.000000D+00  0.000000D+00  0.000000D+00
     12  0.000000D+00  0.000000D+00  0.000000D+00  0.000000D+00  0.000000D+00
     13  0.000000D+00  0.000000D+00  0.000000D+00  0.000000D+00  0.000000D+00
     14  0.000000D+00  0.000000D+00  0.000000D+00  0.000000D+00  0.000000D+00
     15  0.000000D+00  0.000000D+00  0.000000D+00  0.000000D+00  0.000000D+00
     16  0.000000D+00  0.000000D+00  0.000000D+00  0.000000D+00  0.000000D+00
     17  0.000000D+00  0.000000D+00  0.000000D+00  0.000000D+00  0.000000D+00
     18  0.000000D+00  0.000000D+00  0.000000D+00  0.000000D+00  0.000000D+00
                6             7             8             9            10 
      6  0.344138D+00
      7  0.000000D+00  0.917898D-01
      8  0.000000D+00  0.000000D+00  0.393479D+00
      9  0.000000D+00  0.000000D+00  0.811467D-01  0.326018D+00
     10  0.000000D+00  0.000000D+00  0.160371D+00  0.689363D-02  0.327830D+00
     11  0.000000D+00  0.000000D+00  0.000000D+00  0.000000D+00  0.000000D+00
     12  0.000000D+00  0.000000D+00  0.000000D+00  0.000000D+00  0.000000D+00
     13  0.000000D+00  0.000000D+00  0.000000D+00  0.000000D+00  0.000000D+00
     14  0.000000D+00  0.000000D+00  0.345863D-01  0.226814D-01  0.307856D-01
     15  0.000000D+00  0.000000D+00 -0.144151D-02 -0.260824D-01 -0.306456D-01
     16  0.000000D+00  0.000000D+00  0.000000D+00  0.000000D+00  0.000000D+00
     17  0.000000D+00  0.000000D+00  0.000000D+00  0.000000D+00  0.000000D+00
     18  0.000000D+00  0.000000D+00  0.000000D+00  0.000000D+00  0.000000D+00
               11            12            13            14            15 
     11  0.357400D+00
     12  0.374795D-01  0.357391D+00
     13  0.820698D-01  0.818104D-01  0.308698D+00
     14  0.000000D+00  0.000000D+00  0.000000D+00  0.399792D+00
     15  0.000000D+00  0.000000D+00  0.000000D+00 -0.138453D+00  0.400519D+00
     16  0.843785D-03 -0.831188D-03 -0.539627D-04  0.221400D+00  0.221400D+00
     17 -0.638289D-01 -0.608544D-01 -0.353601D-01  0.737999D-01  0.737999D-01
     18  0.381254D-02 -0.381668D-02  0.295991D-05  0.737999D-01  0.737999D-01
               16            17            18 
     16  0.742555D+00
     17  0.261181D+00  0.373869D+00
     18  0.220199D+00 -0.700139D-03  0.221601D+00
 Leave Link  716 at Wed May 26 19:09:24 2021, MaxMem=   13107200 cpu:       0.0
 (Enter /programs/64bit/g09/g09-gfortran/bin/l103.exe)

 GradGradGradGradGradGradGradGradGradGradGradGradGradGradGradGradGradGrad
 Berny optimization.
 Search for a local minimum.
 Step number   1 out of a maximum of    2
 All quantities printed in internal units (Hartrees-Bohrs-Radians)
 Second derivative matrix not updated -- first step.
 The second derivative matrix:
                          d1        a1        t1        d2        a2
           d1           3.32740
           a1           0.00000   0.39348
           t1          -0.00000   0.03459   0.39979
           d2           0.00000   0.00000   0.00000   0.17717
           a2           0.00000   0.08115   0.02268   0.00000   0.32602
           t2           0.00000  -0.00144  -0.13845  -0.00000  -0.02608
           d3          -0.00000  -0.00000   0.00000   0.00000  -0.00000
           d4          -0.00000   0.00000   0.00000  -0.00000   0.00000
           a3           0.00000   0.16037   0.03079   0.00000   0.00689
           d5          -0.00000   0.00000   0.00000   0.00000   0.00000
           a4          -0.00000   0.00000  -0.00000   0.00000  -0.00000
           t3          -0.00000   0.00000   0.22140   0.00000   0.00000
           d6          -0.00000   0.00000   0.00000   0.00000   0.00000
           a5          -0.00000   0.00000  -0.00000   0.00000  -0.00000
           t4           0.00000   0.00000   0.07380   0.00000   0.00000
           d7           0.00000   0.00000   0.00000   0.00000   0.00000
           a6          -0.00000   0.00000  -0.00000   0.00000   0.00000
           t5           0.00000   0.00000   0.07380   0.00000   0.00000
                          t2        d3        d4        a3        d5
           t2           0.40052
           d3          -0.00000   0.47688
           d4           0.00000  -0.00000   0.30567
           a3          -0.03065   0.00000   0.00000   0.32783
           d5           0.00000   0.00000  -0.00000   0.00000   0.40252
           a4          -0.00000   0.00000   0.00000  -0.00000  -0.00000
           t3           0.22140  -0.00000  -0.00000  -0.00000  -0.00000
           d6           0.00000  -0.00000  -0.00000   0.00000  -0.00000
           a5           0.00000   0.00000   0.00000  -0.00000   0.00000
           t4           0.07380  -0.00000   0.00000  -0.00000  -0.00000
           d7           0.00000  -0.00000   0.00000  -0.00000  -0.00000
           a6          -0.00000   0.00000  -0.00000   0.00000  -0.00000
           t5           0.07380  -0.00000  -0.00000   0.00000  -0.00000
                          a4        t3        d6        a5        t4
           a4           0.35740
           t3           0.00084   0.74255
           d6           0.00000   0.00000   0.34414
           a5           0.03748  -0.00083  -0.00000   0.35739
           t4          -0.06383   0.26118   0.00000  -0.06085   0.37387
           d7          -0.00000  -0.00000  -0.00000  -0.00000   0.00000
           a6           0.08207  -0.00005   0.00000   0.08181  -0.03536
           t5           0.00381   0.22020  -0.00000  -0.00382  -0.00070
                          d7        a6        t5
           d7           0.09179
           a6          -0.00000   0.30870
           t5          -0.00000   0.00000   0.22160
     Eigenvalues --- 1000.000001000.000001000.000001000.000001000.00000
     Eigenvalues --- 1000.000001000.000001000.000001000.000001000.00000
     Eigenvalues --- 1000.000001000.000001000.000001000.000001000.00000
     Eigenvalues --- 1000.000001000.000001000.00000
 Angle between quadratic step and forces=  90.00 degrees.
 Linear search not attempted -- first point.
 Variable       Old X    -DE/DX   Delta X   Delta X   Delta X     New X
                                 (Linear)    (Quad)   (Total)
    d1        1.88973   1.29805   0.00000   0.00000   0.00000   1.88973
    a1        3.11022  -0.17231   0.00000   0.00000   0.00000   3.11022
    t1        2.08395  -0.10080   0.00000   0.00000   0.00000   2.08395
    d2        2.49103  -0.04289   0.00000   0.00000   0.00000   2.49103
    a2        1.90918  -0.02386   0.00000   0.00000   0.00000   1.90918
    t2       -3.11363   0.13187   0.00000   0.00000   0.00000  -3.11363
    d3        1.88973   0.10919   0.00000   0.00000   0.00000   1.88973
    d4        2.13546   0.03591   0.00000   0.00000   0.00000   2.13546
    a3        1.89081   0.00897   0.00000   0.00000   0.00000   1.89081
    d5        1.97913   0.03219   0.00000   0.00000   0.00000   1.97913
    a4        1.89299   0.05836   0.00000   0.00000   0.00000   1.89299
    t3        3.14152   0.02832   0.00000   0.00000   0.00000   3.14152
    d6        2.06637   0.01948   0.00000   0.00000   0.00000   2.06637
    a5        1.89302   0.04174   0.00000   0.00000   0.00000   1.89302
    t4        2.09627   0.00613   0.00000   0.00000   0.00000   2.09627
    d7        3.01529  -0.02355   0.00000   0.00000   0.00000   3.01529
    a6        3.11385  -0.17258   0.00000   0.00000   0.00000   3.11385
    t5       -2.09440   0.00081   0.00000   0.00000   0.00000  -2.09440
         Item               Value     Threshold  Converged?
 Maximum Force            0.000000     0.000450     YES
 RMS     Force            0.000000     0.000300     YES
 Maximum Displacement     0.000000     0.001800     YES
 RMS     Displacement     0.000000     0.001200     YES
 Predicted change in Energy=-0.000000D+00
 Optimization completed.
    -- Stationary point found.
                       ----------------------------
                       !   Optimized Parameters   !
                       ! (Angstroms and Degrees)  !
 ----------------------                            ----------------------
 !      Name          Value   Derivative information (Atomic Units)     !
 ------------------------------------------------------------------------
 !       d1          1.0      -DE/DX =    1.298                         !
 !       a1        178.2027   -DE/DX =   -0.1723                        !
 !       t1        119.4013   -DE/DX =   -0.1008                        !
 !       d2          1.3182   -DE/DX =   -0.0429                        !
 !       a2        109.3877   -DE/DX =   -0.0239                        !
 !       t2       -178.3981   -DE/DX =    0.1319                        !
 !       d3          1.0      -DE/DX =    0.1092                        !
 !       d4          1.13     -DE/DX =    0.0359                        !
 !       a3        108.3357   -DE/DX =    0.009                         !
 !       d5          1.0473   -DE/DX =    0.0322                        !
 !       a4        108.4604   -DE/DX =    0.0584                        !
 !       t3        179.9957   -DE/DX =    0.0283                        !
 !       d6          1.0935   -DE/DX =    0.0195                        !
 !       a5        108.4618   -DE/DX =    0.0417                        !
 !       t4        120.1075   -DE/DX =    0.0061                        !
 !       d7          1.5956   -DE/DX =   -0.0236                        !
 !       a6        178.4103   -DE/DX =   -0.1726                        !
 !       t5       -120.0      -DE/DX =    0.0008                        !
 ------------------------------------------------------------------------
 GradGradGradGradGradGradGradGradGradGradGradGradGradGradGradGradGradGrad

 Leave Link  103 at Wed May 26 19:09:24 2021, MaxMem=   13107200 cpu:       0.0
 (Enter /programs/64bit/g09/g09-gfortran/bin/l9999.exe)
 1\1\GINC-MOLMOD\Force\RB3LYP\6-31+G(d,p)\C2H6\OSPITE\26-May-2021\1\\#p
  b3lyp/6-31+g(d,p) force nosym\\c2h6 molecule\\0,1\C\C,1,d1\H,1,d2,2,a
 1\H,1,d3,2,a2,3,t1,0\H,1,d4,2,a3,3,t2,0\H,2,d5,1,a4,3,t3,0\H,2,d6,1,a5
 ,6,t4,0\H,2,d7,1,a6,6,t5,0\\d1=1.\a1=178.2026703\t1=119.40129296\d2=1.
 31819628\a2=109.38774288\t2=-178.39808961\d3=1.\d4=1.13003767\a3=108.3
 3565257\d5=1.04730816\a4=108.46035201\t3=179.99571962\d6=1.09347743\a5
 =108.46177143\t4=120.10753045\d7=1.5956221\a6=178.41030134\t5=-119.999
 99826\\Version=EM64L-G09RevA.02\HF=-79.1077324\RMSD=1.949e-09\RMSF=3.7
 32e-01\Dipole=-0.5747592,-0.6270451,-0.5479247\Quadrupole=1.5017924,0.
 8221606,-2.323953,0.4562267,-0.4472736,-0.8235242\PG=C01 [X(C2H6)]\\@


 IF THE FACTS DO NOT CONFORM TO THE THEORY, THEY MUST BE DISPOSED OF.
 Job cpu time:  0 days  0 hours  0 minutes 13.8 seconds.
 File lengths (MBytes):  RWF=      5 Int=      0 D2E=      0 Chk=      1 Scr=      1
 Normal termination of Gaussian 09 at Wed May 26 19:09:24 2021.
