 Entering Gaussian System, Link 0=g09
 Input=c2h6_049.com
 Output=c2h6_049.log
 Initial command:
 /programs/64bit/g09/g09-gfortran/bin/l1.exe /data/scratch/Gau-7089.inp -scrdir=/data/scratch/
 Entering Link 1 = /programs/64bit/g09/g09-gfortran/bin/l1.exe PID=      7090.
  
 Copyright (c) 1988,1990,1992,1993,1995,1998,2003,2009, Gaussian, Inc.
                  All Rights Reserved.
  
 This is part of the Gaussian(R) 09 program.  It is based on
 the Gaussian(R) 03 system (copyright 2003, Gaussian, Inc.),
 the Gaussian(R) 98 system (copyright 1998, Gaussian, Inc.),
 the Gaussian(R) 94 system (copyright 1995, Gaussian, Inc.),
 the Gaussian 92(TM) system (copyright 1992, Gaussian, Inc.),
 the Gaussian 90(TM) system (copyright 1990, Gaussian, Inc.),
 the Gaussian 88(TM) system (copyright 1988, Gaussian, Inc.),
 the Gaussian 86(TM) system (copyright 1986, Carnegie Mellon
 University), and the Gaussian 82(TM) system (copyright 1983,
 Carnegie Mellon University). Gaussian is a federally registered
 trademark of Gaussian, Inc.
  
 This software contains proprietary and confidential information,
 including trade secrets, belonging to Gaussian, Inc.
  
 This software is provided under written license and may be
 used, copied, transmitted, or stored only in accord with that
 written license.
  
 The following legend is applicable only to US Government
 contracts under FAR:
  
                    RESTRICTED RIGHTS LEGEND
  
 Use, reproduction and disclosure by the US Government is
 subject to restrictions as set forth in subparagraphs (a)
 and (c) of the Commercial Computer Software - Restricted
 Rights clause in FAR 52.227-19.
  
 Gaussian, Inc.
 340 Quinnipiac St., Bldg. 40, Wallingford CT 06492
  
  
 ---------------------------------------------------------------
 Warning -- This program may not be used in any manner that
 competes with the business of Gaussian, Inc. or will provide
 assistance to any competitor of Gaussian, Inc.  The licensee
 of this program is prohibited from giving any competitor of
 Gaussian, Inc. access to this program.  By using this program,
 the user acknowledges that Gaussian, Inc. is engaged in the
 business of creating and licensing software in the field of
 computational chemistry and represents and warrants to the
 licensee that it is not a competitor of Gaussian, Inc. and that
 it will not use this program in any manner prohibited above.
 ---------------------------------------------------------------
  

 Cite this work as:
 Gaussian 09, Revision A.02,
 M. J. Frisch, G. W. Trucks, H. B. Schlegel, G. E. Scuseria, 
 M. A. Robb, J. R. Cheeseman, G. Scalmani, V. Barone, B. Mennucci, 
 G. A. Petersson, H. Nakatsuji, M. Caricato, X. Li, H. P. Hratchian, 
 A. F. Izmaylov, J. Bloino, G. Zheng, J. L. Sonnenberg, M. Hada, 
 M. Ehara, K. Toyota, R. Fukuda, J. Hasegawa, M. Ishida, T. Nakajima, 
 Y. Honda, O. Kitao, H. Nakai, T. Vreven, J. A. Montgomery, Jr., 
 J. E. Peralta, F. Ogliaro, M. Bearpark, J. J. Heyd, E. Brothers, 
 K. N. Kudin, V. N. Staroverov, R. Kobayashi, J. Normand, 
 K. Raghavachari, A. Rendell, J. C. Burant, S. S. Iyengar, J. Tomasi, 
 M. Cossi, N. Rega, J. M. Millam, M. Klene, J. E. Knox, J. B. Cross, 
 V. Bakken, C. Adamo, J. Jaramillo, R. Gomperts, R. E. Stratmann, 
 O. Yazyev, A. J. Austin, R. Cammi, C. Pomelli, J. W. Ochterski, 
 R. L. Martin, K. Morokuma, V. G. Zakrzewski, G. A. Voth, 
 P. Salvador, J. J. Dannenberg, S. Dapprich, A. D. Daniels, 
 O. Farkas, J. B. Foresman, J. V. Ortiz, J. Cioslowski, 
 and D. J. Fox, Gaussian, Inc., Wallingford CT, 2009.
 
 ******************************************
 Gaussian 09:  EM64L-G09RevA.02 11-Jun-2009
                26-May-2021 
 ******************************************
 %chk=c2h6_049.chk
 %mem=100MB
 --------------------------------
 #p b3lyp/6-31+g(d,p) force nosym
 --------------------------------
 1/10=7,30=1,38=1/1,3;
 2/12=2,15=1,17=6,18=5,40=1/2;
 3/5=1,6=6,7=111,11=2,16=1,25=1,30=1,71=1,74=-5/1,2,3;
 4//1;
 5/5=2,38=5/2;
 6/7=2,8=2,9=2,10=2,28=1/1;
 7/29=1,30=1/1,2,3,16;
 1/10=7,30=1/3;
 99//99;
 Leave Link    1 at Wed May 26 19:15:52 2021, MaxMem=   13107200 cpu:       0.0
 (Enter /programs/64bit/g09/g09-gfortran/bin/l101.exe)
 -------------
 c2h6 molecule
 -------------
 Symbolic Z-matrix:
 Charge =  0 Multiplicity = 1
 C1
 C2                   1    d1
 H3                   1    d2       2    a1
 H4                   1    d3       2    a2       3    t1       0
 H5                   1    d4       2    a3       3    t2       0
 H6                   2    d5       1    a4       3    t3       0
 H7                   2    d6       1    a5       6    t4       0
 H8                   2    d7       1    a6       6    t5       0
       Variables:
       Constants:
  d1                    1.56537                  
  a1                  131.86367                  
  t1                  105.19679                  
  d2                    1.11529                  
  a2                   93.74123                  
  t2                 -150.756                    
  d3                    1.14188                  
  d4                    1.08586                  
  a3                  117.36723                  
  d5                    1.10814                  
  a4                  100.65302                  
  t3                  179.57863                  
  d6                    1.08969                  
  a5                  106.9142                   
  t4                  104.82711                  
  d7                    1.07062                  
  a6                  119.80358                  
  t5                 -120.24719                  
 
 NAtoms=      8 NQM=      8 NQMF=      0 NMic=      0 NMicF=      0 NTot=      8.
                    Isotopes and Nuclear Properties:
 (Nuclear quadrupole moments (NQMom) in fm**2, nuclear magnetic moments (NMagM)
  in nuclear magnetons)

  Atom         1           2           3           4           5           6           7           8
 IAtWgt=          12          12           1           1           1           1           1           1
 AtmWgt=  12.0000000  12.0000000   1.0078250   1.0078250   1.0078250   1.0078250   1.0078250   1.0078250
 NucSpn=           0           0           1           1           1           1           1           1
 AtZEff=   0.0000000   0.0000000   0.0000000   0.0000000   0.0000000   0.0000000   0.0000000   0.0000000
 NQMom=    0.0000000   0.0000000   0.0000000   0.0000000   0.0000000   0.0000000   0.0000000   0.0000000
 NMagM=    0.0000000   0.0000000   2.7928460   2.7928460   2.7928460   2.7928460   2.7928460   2.7928460
 Leave Link  101 at Wed May 26 19:15:52 2021, MaxMem=   13107200 cpu:       0.0
 (Enter /programs/64bit/g09/g09-gfortran/bin/l103.exe)

 GradGradGradGradGradGradGradGradGradGradGradGradGradGradGradGradGradGrad
 Berny optimization.
 Initialization pass.
                       ----------------------------
                       !    Initial Parameters    !
                       ! (Angstroms and Degrees)  !
 ----------------------                            ----------------------
 !      Name          Value   Derivative information (Atomic Units)     !
 ------------------------------------------------------------------------
 !       d1          1.5654   Frozen                                    !
 !       a1        131.8637   Frozen                                    !
 !       t1        105.1968   Frozen                                    !
 !       d2          1.1153   Frozen                                    !
 !       a2         93.7412   Frozen                                    !
 !       t2       -150.756    Frozen                                    !
 !       d3          1.1419   Frozen                                    !
 !       d4          1.0859   Frozen                                    !
 !       a3        117.3672   Frozen                                    !
 !       d5          1.1081   Frozen                                    !
 !       a4        100.653    Frozen                                    !
 !       t3        179.5786   Frozen                                    !
 !       d6          1.0897   Frozen                                    !
 !       a5        106.9142   Frozen                                    !
 !       t4        104.8271   Frozen                                    !
 !       d7          1.0706   Frozen                                    !
 !       a6        119.8036   Frozen                                    !
 !       t5       -120.2472   Frozen                                    !
 ------------------------------------------------------------------------
 Trust Radius=3.00D-01 FncErr=1.00D-07 GrdErr=1.00D-07
 Number of steps in this run=   2 maximum allowed number of steps=   2.
 GradGradGradGradGradGradGradGradGradGradGradGradGradGradGradGradGradGrad

 Leave Link  103 at Wed May 26 19:15:52 2021, MaxMem=   13107200 cpu:       0.0
 (Enter /programs/64bit/g09/g09-gfortran/bin/l202.exe)
                          Input orientation:                          
 ---------------------------------------------------------------------
 Center     Atomic      Atomic             Coordinates (Angstroms)
 Number     Number       Type             X           Y           Z
 ---------------------------------------------------------------------
      1          6           0        0.000000    0.000000    0.000000
      2          6           0        0.000000    0.000000    1.565374
      3          1           0        0.830599    0.000000   -0.744304
      4          1           0       -0.298689   -1.099600   -0.074508
      5          1           0       -0.841423    0.471104   -0.499162
      6          1           0       -1.089014    0.008009    1.770226
      7          1           0        0.259374   -1.009775    1.882408
      8          1           0        0.473862    0.799074    2.097501
 ---------------------------------------------------------------------
                    Distance matrix (angstroms):
                    1          2          3          4          5
     1  C    0.000000
     2  C    1.565374   0.000000
     3  H    1.115295   2.454487   0.000000
     4  H    1.141879   1.996884   1.712611   0.000000
     5  H    1.085861   2.278648   1.754335   1.715227   0.000000
     6  H    2.078392   1.108142   3.163516   2.292260   2.329351
     7  H    2.151832   1.089693   2.871508   2.036915   3.012745
     8  H    2.294030   1.070618   2.973489   2.986540   2.929197
                    6          7          8
     6  H    0.000000
     7  H    1.693109   0.000000
     8  H    1.781986   1.834176   0.000000
 Symmetry turned off by external request.
 Stoichiometry    C2H6
 Framework group  C1[X(C2H6)]
 Deg. of freedom    18
 Full point group                 C1      NOp   1
 Rotational constants (GHZ):     83.4130881     19.1700561     19.0812199
 Leave Link  202 at Wed May 26 19:15:52 2021, MaxMem=   13107200 cpu:       0.0
 (Enter /programs/64bit/g09/g09-gfortran/bin/l301.exe)
 Standard basis: 6-31+G(d,p) (6D, 7F)
 Ernie: Thresh=  0.10000D-02 Tol=  0.10000D-05 Strict=F.
 Integral buffers will be    131072 words long.
 Raffenetti 2 integral format.
 Two-electron integral symmetry is turned off.
    68 basis functions,   106 primitive gaussians,    68 cartesian basis functions
     9 alpha electrons        9 beta electrons
       nuclear repulsion energy        41.7280436970 Hartrees.
 IExCor=  402 DFT=T Ex+Corr=B3LYP ExCW=0 ScaHFX=  0.200000
 ScaDFX=  0.800000  0.720000  1.000000  0.810000 ScalE2=  1.000000  1.000000
 IRadAn=      0 IRanWt=     -1 IRanGd=            0 ICorTp=0
 NAtoms=    8 NActive=    8 NUniq=    8 SFac= 7.50D-01 NAtFMM=   80 NAOKFM=F Big=F
 Leave Link  301 at Wed May 26 19:15:52 2021, MaxMem=   13107200 cpu:       0.0
 (Enter /programs/64bit/g09/g09-gfortran/bin/l302.exe)
 NPDir=0 NMtPBC=     1 NCelOv=     1 NCel=       1 NClECP=     1 NCelD=      1
         NCelK=      1 NCelE2=     1 NClLst=     1 CellRange=     0.0.
 One-electron integrals computed using PRISM.
 NBasis=    68 RedAO= T  NBF=    68
 NBsUse=    68 1.00D-06 NBFU=    68
 Precomputing XC quadrature grid using
 IXCGrd= 2 IRadAn=           0 IRanWt=          -1 IRanGd=           0 AccXCQ= 1.00D-10.
 NRdTot=     510 NPtTot=       65100 NUsed=       68787 NTot=       68819
 NSgBfM=    68    68    68    68    68 NAtAll=     8     8.
 Leave Link  302 at Wed May 26 19:15:52 2021, MaxMem=   13107200 cpu:       0.1
 (Enter /programs/64bit/g09/g09-gfortran/bin/l303.exe)
 DipDrv:  MaxL=1.
 Leave Link  303 at Wed May 26 19:15:52 2021, MaxMem=   13107200 cpu:       0.0
 (Enter /programs/64bit/g09/g09-gfortran/bin/l401.exe)
 Harris functional with IExCor=  402 diagonalized for initial guess.
 ExpMin= 4.38D-02 ExpMax= 3.05D+03 ExpMxC= 4.57D+02 IAcc=2 IRadAn=         0 AccDes= 0.00D+00
 HarFok:  IExCor=  402 AccDes= 0.00D+00 IRadAn=         0 IDoV= 1
 ScaDFX=  1.000000  1.000000  1.000000  1.000000
 FoFCou: FMM=F IPFlag=           0 FMFlag=      100000 FMFlg1=           0
         NFxFlg=           0 DoJE=T BraDBF=F KetDBF=T FulRan=T
         Omega=  0.000000  0.000000  1.000000  0.000000  0.000000 ICntrl=     500 IOpCl=  0
         NMat0=    1 NMatS0=    1 NMatT0=    0 NMatD0=    1 NMtDS0=    0 NMtDT0=    0
         I1Cent=           4 NGrid=           0.
 Symmetry not used in FoFCou.
 Harris En= -79.8635019845774    
 Leave Link  401 at Wed May 26 19:15:53 2021, MaxMem=   13107200 cpu:       0.7
 (Enter /programs/64bit/g09/g09-gfortran/bin/l502.exe)
 Closed shell SCF:
 Requested convergence on RMS density matrix=1.00D-08 within 128 cycles.
 Requested convergence on MAX density matrix=1.00D-06.
 Requested convergence on             energy=1.00D-06.
 No special actions if energy rises.
 Using DIIS extrapolation, IDIIS=  1040.
 Two-electron integral symmetry not used.
        68702 words used for storage of precomputed grid.
 Keep R1 ints in memory in canonical form, NReq=3743087.
 IEnd=      101552 IEndB=      101552 NGot=    13107200 MDV=    10273922
 LenX=    10273922 LenY=    10268857
 Symmetry not used in FoFDir.
 MinBra= 0 MaxBra= 2 Meth= 1.
 IRaf=       0 NMat=   1 IRICut=       1 DoRegI=T DoRafI=F ISym2E= 0 JSym2E=0.

 Cycle   1  Pass 1  IDiag  1:
 E= -79.6892054477827    
 DIIS: error= 3.85D-02 at cycle   1 NSaved=   1.
 NSaved= 1 IEnMin= 1 EnMin= -79.6892054477827     IErMin= 1 ErrMin= 3.85D-02
 ErrMax= 3.85D-02 EMaxC= 1.00D-01 BMatC= 1.08D-01 BMatP= 1.08D-01
 IDIUse=3 WtCom= 6.15D-01 WtEn= 3.85D-01
 Coeff-Com:  0.100D+01
 Coeff-En:   0.100D+01
 Coeff:      0.100D+01
 Gap=     0.261 Goal=   None    Shift=    0.000
 GapD=    0.261 DampG=1.000 DampE=0.500 DampFc=0.5000 IDamp=-1.
 Damping current iteration by 5.00D-01
 RMSDP=1.00D-02 MaxDP=1.39D-01              OVMax= 1.99D-01

 Cycle   2  Pass 1  IDiag  1:
 E= -79.7395745963050     Delta-E=       -0.050369148522 Rises=F Damp=T
 DIIS: error= 1.11D-02 at cycle   2 NSaved=   2.
 NSaved= 2 IEnMin= 2 EnMin= -79.7395745963050     IErMin= 2 ErrMin= 1.11D-02
 ErrMax= 1.11D-02 EMaxC= 1.00D-01 BMatC= 4.88D-03 BMatP= 1.08D-01
 IDIUse=3 WtCom= 8.89D-01 WtEn= 1.11D-01
 Coeff-Com:  0.116D+00 0.884D+00
 Coeff-En:   0.196D+00 0.804D+00
 Coeff:      0.124D+00 0.876D+00
 Gap=     0.357 Goal=   None    Shift=    0.000
 RMSDP=1.68D-03 MaxDP=1.77D-02 DE=-5.04D-02 OVMax= 1.14D-01

 Cycle   3  Pass 1  IDiag  1:
 E= -79.8120574376633     Delta-E=       -0.072482841358 Rises=F Damp=F
 DIIS: error= 1.75D-03 at cycle   3 NSaved=   3.
 NSaved= 3 IEnMin= 3 EnMin= -79.8120574376633     IErMin= 3 ErrMin= 1.75D-03
 ErrMax= 1.75D-03 EMaxC= 1.00D-01 BMatC= 2.53D-04 BMatP= 4.88D-03
 IDIUse=3 WtCom= 9.82D-01 WtEn= 1.75D-02
 Coeff-Com:  0.109D-01 0.148D+00 0.841D+00
 Coeff-En:   0.000D+00 0.000D+00 0.100D+01
 Coeff:      0.107D-01 0.146D+00 0.844D+00
 Gap=     0.338 Goal=   None    Shift=    0.000
 RMSDP=3.27D-04 MaxDP=2.70D-03 DE=-7.25D-02 OVMax= 5.60D-03

 Cycle   4  Pass 1  IDiag  1:
 E= -79.8122702440610     Delta-E=       -0.000212806398 Rises=F Damp=F
 DIIS: error= 6.78D-04 at cycle   4 NSaved=   4.
 NSaved= 4 IEnMin= 4 EnMin= -79.8122702440610     IErMin= 4 ErrMin= 6.78D-04
 ErrMax= 6.78D-04 EMaxC= 1.00D-01 BMatC= 3.34D-05 BMatP= 2.53D-04
 IDIUse=3 WtCom= 9.93D-01 WtEn= 6.78D-03
 Coeff-Com:  0.595D-03 0.907D-02 0.257D+00 0.734D+00
 Coeff-En:   0.000D+00 0.000D+00 0.000D+00 0.100D+01
 Coeff:      0.591D-03 0.901D-02 0.255D+00 0.735D+00
 Gap=     0.339 Goal=   None    Shift=    0.000
 RMSDP=9.79D-05 MaxDP=1.57D-03 DE=-2.13D-04 OVMax= 2.33D-03

 Cycle   5  Pass 1  IDiag  1:
 E= -79.8122951226183     Delta-E=       -0.000024878557 Rises=F Damp=F
 DIIS: error= 3.54D-04 at cycle   5 NSaved=   5.
 NSaved= 5 IEnMin= 5 EnMin= -79.8122951226183     IErMin= 5 ErrMin= 3.54D-04
 ErrMax= 3.54D-04 EMaxC= 1.00D-01 BMatC= 8.13D-06 BMatP= 3.34D-05
 IDIUse=3 WtCom= 9.96D-01 WtEn= 3.54D-03
 Coeff-Com:  0.334D-04-0.330D-02 0.916D-01 0.397D+00 0.515D+00
 Coeff-En:   0.000D+00 0.000D+00 0.000D+00 0.136D+00 0.864D+00
 Coeff:      0.333D-04-0.328D-02 0.913D-01 0.396D+00 0.516D+00
 Gap=     0.339 Goal=   None    Shift=    0.000
 RMSDP=3.50D-05 MaxDP=6.21D-04 DE=-2.49D-05 OVMax= 8.99D-04

 Cycle   6  Pass 1  IDiag  1:
 E= -79.8123031382706     Delta-E=       -0.000008015652 Rises=F Damp=F
 DIIS: error= 1.34D-05 at cycle   6 NSaved=   6.
 NSaved= 6 IEnMin= 6 EnMin= -79.8123031382706     IErMin= 6 ErrMin= 1.34D-05
 ErrMax= 1.34D-05 EMaxC= 1.00D-01 BMatC= 1.64D-08 BMatP= 8.13D-06
 IDIUse=1 WtCom= 1.00D+00 WtEn= 0.00D+00
 Coeff-Com:  0.198D-03-0.604D-03 0.591D-02 0.296D-01 0.612D-01 0.904D+00
 Coeff:      0.198D-03-0.604D-03 0.591D-02 0.296D-01 0.612D-01 0.904D+00
 Gap=     0.339 Goal=   None    Shift=    0.000
 RMSDP=2.55D-06 MaxDP=3.40D-05 DE=-8.02D-06 OVMax= 5.33D-05

 Cycle   7  Pass 1  IDiag  1:
 E= -79.8123031555835     Delta-E=       -0.000000017313 Rises=F Damp=F
 DIIS: error= 3.66D-06 at cycle   7 NSaved=   7.
 NSaved= 7 IEnMin= 7 EnMin= -79.8123031555835     IErMin= 7 ErrMin= 3.66D-06
 ErrMax= 3.66D-06 EMaxC= 1.00D-01 BMatC= 1.04D-09 BMatP= 1.64D-08
 IDIUse=1 WtCom= 1.00D+00 WtEn= 0.00D+00
 Coeff-Com:  0.745D-04-0.989D-04-0.157D-02-0.537D-02 0.253D-03 0.283D+00
 Coeff-Com:  0.724D+00
 Coeff:      0.745D-04-0.989D-04-0.157D-02-0.537D-02 0.253D-03 0.283D+00
 Coeff:      0.724D+00
 Gap=     0.339 Goal=   None    Shift=    0.000
 RMSDP=7.13D-07 MaxDP=7.35D-06 DE=-1.73D-08 OVMax= 1.32D-05

 Cycle   8  Pass 1  IDiag  1:
 E= -79.8123031567968     Delta-E=       -0.000000001213 Rises=F Damp=F
 DIIS: error= 2.30D-07 at cycle   8 NSaved=   8.
 NSaved= 8 IEnMin= 8 EnMin= -79.8123031567968     IErMin= 8 ErrMin= 2.30D-07
 ErrMax= 2.30D-07 EMaxC= 1.00D-01 BMatC= 5.18D-12 BMatP= 1.04D-09
 IDIUse=1 WtCom= 1.00D+00 WtEn= 0.00D+00
 Coeff-Com:  0.136D-05-0.646D-06-0.215D-03-0.780D-03-0.946D-03 0.102D-01
 Coeff-Com:  0.742D-01 0.918D+00
 Coeff:      0.136D-05-0.646D-06-0.215D-03-0.780D-03-0.946D-03 0.102D-01
 Coeff:      0.742D-01 0.918D+00
 Gap=     0.339 Goal=   None    Shift=    0.000
 RMSDP=6.62D-08 MaxDP=8.71D-07 DE=-1.21D-09 OVMax= 1.30D-06

 Cycle   9  Pass 1  IDiag  1:
 E= -79.8123031568036     Delta-E=       -0.000000000007 Rises=F Damp=F
 DIIS: error= 3.33D-08 at cycle   9 NSaved=   9.
 NSaved= 9 IEnMin= 9 EnMin= -79.8123031568036     IErMin= 9 ErrMin= 3.33D-08
 ErrMax= 3.33D-08 EMaxC= 1.00D-01 BMatC= 1.24D-13 BMatP= 5.18D-12
 IDIUse=1 WtCom= 1.00D+00 WtEn= 0.00D+00
 Coeff-Com: -0.900D-06 0.933D-06-0.204D-04-0.780D-04-0.153D-03-0.171D-02
 Coeff-Com:  0.530D-02 0.179D+00 0.818D+00
 Coeff:     -0.900D-06 0.933D-06-0.204D-04-0.780D-04-0.153D-03-0.171D-02
 Coeff:      0.530D-02 0.179D+00 0.818D+00
 Gap=     0.339 Goal=   None    Shift=    0.000
 RMSDP=9.99D-09 MaxDP=9.60D-08 DE=-6.85D-12 OVMax= 1.46D-07

 SCF Done:  E(RB3LYP) =  -79.8123031568     A.U. after    9 cycles
             Convg  =    0.9990D-08             -V/T =  2.0116
 KE= 7.889948725983D+01 PE=-2.670641059691D+02 EE= 6.662427185547D+01
 Leave Link  502 at Wed May 26 19:15:59 2021, MaxMem=   13107200 cpu:       5.8
 (Enter /programs/64bit/g09/g09-gfortran/bin/l601.exe)
 Copying SCF densities to generalized density rwf, IOpCl= 0 IROHF=0.

 **********************************************************************

            Population analysis using the SCF density.

 **********************************************************************

 Alpha  occ. eigenvalues --  -10.18642 -10.18504  -0.75367  -0.62134  -0.44329
 Alpha  occ. eigenvalues --   -0.42785  -0.37679  -0.33985  -0.32480
 Alpha virt. eigenvalues --    0.01390   0.02634   0.05316   0.05547   0.07886
 Alpha virt. eigenvalues --    0.08847   0.09038   0.13574   0.14497   0.18279
 Alpha virt. eigenvalues --    0.21624   0.23650   0.25464   0.28431   0.32620
 Alpha virt. eigenvalues --    0.63507   0.63927   0.65529   0.66619   0.69329
 Alpha virt. eigenvalues --    0.69772   0.88821   0.90990   0.94668   0.97079
 Alpha virt. eigenvalues --    1.04318   1.09183   1.10768   1.27879   1.35299
 Alpha virt. eigenvalues --    1.36985   1.61751   1.76619   1.80052   1.99014
 Alpha virt. eigenvalues --    2.04691   2.05230   2.10038   2.12212   2.19003
 Alpha virt. eigenvalues --    2.24422   2.28884   2.35329   2.44342   2.50889
 Alpha virt. eigenvalues --    2.66499   2.73520   2.75842   2.81756   2.87397
 Alpha virt. eigenvalues --    2.94184   3.15709   3.28060   3.39078   3.42385
 Alpha virt. eigenvalues --    3.50809   3.54118   4.33537   4.60199
          Condensed to atoms (all electrons):
              1          2          3          4          5          6
     1  C    5.167480   0.223573   0.374386   0.418935   0.400295  -0.058304
     2  C    0.223573   5.119256  -0.003783  -0.085503  -0.033825   0.411707
     3  H    0.374386  -0.003783   0.547417  -0.035865  -0.032321   0.003642
     4  H    0.418935  -0.085503  -0.035865   0.622696  -0.034952  -0.004458
     5  H    0.400295  -0.033825  -0.032321  -0.034952   0.553140  -0.009353
     6  H   -0.058304   0.411707   0.003642  -0.004458  -0.009353   0.573505
     7  H   -0.073336   0.437244  -0.000417  -0.015821   0.004508  -0.039388
     8  H   -0.020129   0.385458  -0.002644   0.005780  -0.000211  -0.027032
              7          8
     1  C   -0.073336  -0.020129
     2  C    0.437244   0.385458
     3  H   -0.000417  -0.002644
     4  H   -0.015821   0.005780
     5  H    0.004508  -0.000211
     6  H   -0.039388  -0.027032
     7  H    0.557293  -0.023812
     8  H   -0.023812   0.530466
 Mulliken atomic charges:
              1
     1  C   -0.432900
     2  C   -0.454126
     3  H    0.149586
     4  H    0.129188
     5  H    0.152718
     6  H    0.149681
     7  H    0.153728
     8  H    0.152126
 Sum of Mulliken atomic charges =  -0.00000
 Mulliken charges with hydrogens summed into heavy atoms:
              1
     1  C   -0.001408
     2  C    0.001408
 Sum of Mulliken charges with hydrogens summed into heavy atoms =  -0.00000
 Electronic spatial extent (au):  <R**2>=            150.7449
 Charge=             -0.0000 electrons
 Dipole moment (field-independent basis, Debye):
    X=             -0.1916    Y=             -0.2076    Z=              0.0651  Tot=              0.2899
 Quadrupole moment (field-independent basis, Debye-Ang):
   XX=            -15.4084   YY=            -15.3291   ZZ=            -15.2338
   XY=             -0.0164   XZ=             -0.2233   YZ=             -0.1660
 Traceless Quadrupole moment (field-independent basis, Debye-Ang):
   XX=             -0.0846   YY=             -0.0053   ZZ=              0.0900
   XY=             -0.0164   XZ=             -0.2233   YZ=             -0.1660
 Octapole moment (field-independent basis, Debye-Ang**2):
  XXX=              0.9115  YYY=              1.4919  ZZZ=            -36.0747  XYY=              0.7422
  XXY=              0.9761  XXZ=            -12.0215  XZZ=              0.8970  YZZ=              1.0814
  YYZ=            -10.5822  XYZ=              0.5891
 Hexadecapole moment (field-independent basis, Debye-Ang**3):
 XXXX=            -31.3906 YYYY=            -31.5884 ZZZZ=           -156.4125 XXXY=             -0.4286
 XXXZ=              0.4462 YYYX=             -0.0119 YYYZ=              0.2178 ZZZX=              2.2042
 ZZZY=              1.9598 XXYY=            -10.9266 XXZZ=            -30.5305 YYZZ=            -29.2923
 XXYZ=              0.3746 YYXZ=              1.3933 ZZXY=              0.7842
 N-N= 4.172804369701D+01 E-N=-2.670641051741D+02  KE= 7.889948725983D+01
 No NMR shielding tensors so no spin-rotation constants.
 Leave Link  601 at Wed May 26 19:15:59 2021, MaxMem=   13107200 cpu:       0.0
 (Enter /programs/64bit/g09/g09-gfortran/bin/l701.exe)
 Compute integral first derivatives.
 ... and contract with generalized density number  0.
 Leave Link  701 at Wed May 26 19:15:59 2021, MaxMem=   13107200 cpu:       0.1
 (Enter /programs/64bit/g09/g09-gfortran/bin/l702.exe)
 L702 exits ... SP integral derivatives will be done elsewhere.
 Leave Link  702 at Wed May 26 19:15:59 2021, MaxMem=   13107200 cpu:       0.0
 (Enter /programs/64bit/g09/g09-gfortran/bin/l703.exe)
 Compute integral first derivatives, UseDBF=F ICtDFT=           0.
 Integral derivatives from FoFDir, PRISM(SPDF).
 Calling FoFJK, ICntrl=      2127 FMM=F ISym2X=0 I1Cent= 0 IOpClX= 0 NMat=1 NMatS=1 NMatT=0.
 FoFCou: FMM=F IPFlag=           0 FMFlag=      100000 FMFlg1=         800
         NFxFlg=           0 DoJE=F BraDBF=F KetDBF=F FulRan=T
         Omega=  0.000000  0.000000  1.000000  0.000000  0.000000 ICntrl=    2127 IOpCl=  0
         NMat0=    1 NMatS0=    1 NMatT0=    0 NMatD0=    1 NMtDS0=    0 NMtDT0=    0
         I1Cent=           0 NGrid=           0.
 Symmetry not used in FoFCou.
 Leave Link  703 at Wed May 26 19:16:00 2021, MaxMem=   13107200 cpu:       1.4
 (Enter /programs/64bit/g09/g09-gfortran/bin/l716.exe)
 Dipole        =-7.53816847D-02-8.16640341D-02 2.55956670D-02
 -------------------------------------------------------------------
 Center     Atomic                   Forces (Hartrees/Bohr)
 Number     Number              X              Y              Z
 -------------------------------------------------------------------
      1        6          -0.011667684   -0.063259824   -0.012498233
      2        6          -0.025825622   -0.004421829   -0.026617788
      3        1           0.005595738    0.012972049    0.025483190
      4        1           0.001815511    0.018948591   -0.013783243
      5        1          -0.002419753    0.014871000    0.005755415
      6        1           0.007122392    0.007796808    0.006354561
      7        1           0.015445016    0.004957145    0.008510394
      8        1           0.009934402    0.008136060    0.006795703
 -------------------------------------------------------------------
 Cartesian Forces:  Max     0.063259824 RMS     0.018313376
 -----------------------------------------------------------------------------------------------
                       Internal Coordinate Forces (Hartree/Bohr or radian)
  Cent   Atom   N1       Length/X         N2         Alpha/Y        N3         Beta/Z          J
 -----------------------------------------------------------------------------------------------
      1  C 
      2  C        1  -0.004957(     1)
      3  H        1  -0.012839(     2)      2  -0.047869(     8)
      4  H        1  -0.017823(     3)      2   0.032320(     9)      3   0.006923(    14)     0
      5  H        1   0.005681(     4)      2  -0.019333(    10)      3   0.021492(    15)     0
      6  H        2  -0.005768(     5)      1   0.015813(    11)      3   0.008033(    16)     0
      7  H        2   0.001559(     6)      1   0.017341(    12)      6   0.031902(    17)     0
      8  H        2   0.013847(     7)      1  -0.000202(    13)      6  -0.007716(    18)     0
 -----------------------------------------------------------------------------------------------
 Internal  Forces:  Max     0.047869102 RMS     0.019262774
 Force constants in Cartesian coordinates: 
                1             2             3             4             5 
      1  0.618904D+00
      2 -0.369603D-01  0.528938D+00
      3 -0.169313D-01 -0.360685D-01  0.689418D+00
      4 -0.995356D-01 -0.187837D-02  0.713236D-02  0.607058D+00
      5 -0.198025D-02 -0.891580D-01  0.112581D-01  0.460749D-01  0.703408D+00
      6 -0.658339D-02 -0.405019D-02 -0.263844D+00  0.511355D-01  0.440731D-01
      7 -0.209954D+00  0.367696D-02  0.103741D+00  0.175213D-01  0.668575D-03
      8  0.153892D-01 -0.694442D-01 -0.692317D-02  0.969643D-03  0.577272D-02
      9  0.123316D+00  0.410327D-02 -0.204689D+00  0.195527D-01  0.746090D-03
     10 -0.730199D-01 -0.652664D-01 -0.227389D-02  0.412902D-03  0.170026D-03
     11 -0.597421D-01 -0.274676D+00 -0.148345D-01  0.326425D-03  0.159486D-02
     12 -0.599080D-02 -0.302034D-01 -0.664045D-01 -0.647268D-02 -0.242188D-01
     13 -0.248595D+00  0.971525D-01 -0.916683D-01  0.999361D-02 -0.303485D-02
     14  0.800190D-01 -0.113562D+00  0.465682D-01 -0.356692D-02  0.752171D-02
     15 -0.100394D+00  0.621686D-01 -0.154480D+00 -0.202124D-01  0.122147D-01
     16  0.478119D-02 -0.506783D-04  0.000000D+00 -0.317497D+00  0.411194D-04
     17 -0.281896D-03  0.288791D-03  0.000000D+00 -0.561993D-02 -0.723176D-01
     18  0.254283D-01 -0.280702D-03  0.000000D+00  0.559190D-01 -0.977683D-02
     19  0.222544D-02 -0.166888D-02  0.000000D+00 -0.849447D-01  0.466572D-01
     20 -0.150603D-02  0.722527D-02  0.000000D+00  0.568478D-01 -0.312204D+00
     21 -0.661749D-02  0.243783D-01  0.000000D+00 -0.345425D-01  0.773737D-01
     22  0.519417D-02  0.499521D-02  0.000000D+00 -0.133008D+00 -0.885968D-01
     23  0.506239D-02  0.103879D-01  0.000000D+00 -0.931536D-01 -0.244617D+00
     24 -0.122274D-01 -0.200474D-01  0.000000D+00 -0.725120D-01 -0.111670D+00
                6             7             8             9            10 
      6  0.607558D+00
      7  0.000000D+00  0.207734D+00
      8  0.000000D+00 -0.344548D-02  0.505904D-01
      9  0.000000D+00 -0.125793D+00 -0.384495D-02  0.180080D+00
     10  0.000000D+00 -0.352788D-02 -0.247770D-01 -0.393691D-02  0.636298D-01
     11  0.000000D+00  0.706096D-03  0.514681D-02  0.787962D-03  0.625900D-01
     12  0.000000D+00  0.372194D-02  0.233689D-01  0.415347D-02  0.160448D-02
     13  0.000000D+00 -0.117734D-01  0.118608D-01 -0.131384D-01  0.125031D-01
     14  0.000000D+00 -0.160616D-02  0.783303D-02 -0.179238D-02  0.272121D-01
     15  0.000000D+00  0.183302D-01 -0.126007D-01  0.204554D-01  0.460633D-02
     16  0.474113D-01  0.000000D+00  0.523639D-05  0.000000D+00  0.368359D-05
     17 -0.859169D-02  0.000000D+00  0.712003D-03  0.000000D+00  0.500865D-03
     18 -0.755962D-01  0.000000D+00  0.000000D+00  0.000000D+00  0.000000D+00
     19 -0.290940D-01  0.000000D+00 -0.720387D-03  0.000000D+00 -0.506763D-03
     20  0.693230D-01  0.000000D+00 -0.185041D-03  0.000000D+00 -0.130169D-03
     21 -0.103881D+00  0.000000D+00  0.000000D+00  0.000000D+00  0.000000D+00
     22 -0.628694D-01  0.000000D+00  0.717931D-03  0.000000D+00  0.505035D-03
     23 -0.100754D+00  0.000000D+00 -0.425743D-03  0.000000D+00 -0.299493D-03
     24 -0.164237D+00  0.000000D+00  0.000000D+00  0.000000D+00  0.000000D+00
               11            12            13            14            15 
     11  0.276400D+00
     12  0.154786D-01  0.595825D-01
     13 -0.387987D-02  0.713707D-02  0.237873D+00
     14 -0.844705D-02  0.155747D-01 -0.102056D+00  0.106730D+00
     15 -0.143205D-02  0.266850D-02  0.976697D-01 -0.603505D-01  0.131356D+00
     16 -0.100059D-05  0.000000D+00 -0.220338D-05 -0.393538D-05  0.000000D+00
     17 -0.136052D-03  0.000000D+00 -0.299598D-03 -0.535102D-03  0.000000D+00
     18  0.000000D+00  0.000000D+00  0.000000D+00  0.000000D+00  0.000000D+00
     19  0.137654D-03  0.000000D+00  0.303126D-03  0.541403D-03  0.000000D+00
     20  0.353582D-04  0.000000D+00  0.778618D-04  0.139066D-03  0.000000D+00
     21  0.000000D+00  0.000000D+00  0.000000D+00  0.000000D+00  0.000000D+00
     22 -0.137185D-03  0.000000D+00 -0.302092D-03 -0.539557D-03  0.000000D+00
     23  0.813525D-04  0.000000D+00  0.179145D-03  0.319965D-03  0.000000D+00
     24  0.000000D+00  0.000000D+00  0.000000D+00  0.000000D+00  0.000000D+00
               16            17            18            19            20 
     16  0.318624D+00
     17 -0.843186D-03  0.575150D-01
     18 -0.496778D-01  0.609170D-02  0.636445D-01
     19 -0.197466D-02  0.333920D-01 -0.118030D-01  0.718683D-01
     20 -0.335529D-03  0.589831D-02 -0.201431D-02 -0.621848D-01  0.308814D+00
     21  0.546839D-03 -0.853233D-02  0.324064D-02  0.282418D-01 -0.754692D-01
     22 -0.393448D-02 -0.268482D-01 -0.198664D-01  0.130293D-01  0.723094D-02
     23  0.118797D-02  0.857463D-02  0.598014D-02 -0.161541D-01 -0.972241D-02
     24  0.171975D-02  0.110323D-01  0.871102D-02  0.126553D-01  0.816054D-02
               21            22            23            24 
     21  0.850022D-01
     22  0.123714D-01  0.118516D+00
     23 -0.177504D-01  0.103178D+00  0.235401D+00
     24  0.156382D-01  0.703644D-01  0.112524D+00  0.139887D+00
 Force constants in internal coordinates: 
                1             2             3             4             5 
      1  0.263844D+00
      2  0.000000D+00  0.320458D+00
      3  0.000000D+00  0.000000D+00  0.294451D+00
      4  0.000000D+00  0.000000D+00  0.000000D+00  0.352954D+00
      5  0.000000D+00  0.000000D+00  0.000000D+00  0.000000D+00  0.327975D+00
      6  0.000000D+00  0.000000D+00  0.000000D+00  0.000000D+00  0.000000D+00
      7  0.000000D+00  0.000000D+00  0.000000D+00  0.000000D+00  0.000000D+00
      8  0.000000D+00  0.000000D+00  0.000000D+00  0.000000D+00  0.000000D+00
      9  0.000000D+00  0.000000D+00  0.000000D+00  0.000000D+00  0.000000D+00
     10  0.000000D+00  0.000000D+00  0.000000D+00  0.000000D+00  0.000000D+00
     11  0.000000D+00  0.000000D+00  0.000000D+00  0.000000D+00  0.000000D+00
     12  0.000000D+00  0.000000D+00  0.000000D+00  0.000000D+00  0.000000D+00
     13  0.000000D+00  0.000000D+00  0.000000D+00  0.000000D+00  0.000000D+00
     14  0.000000D+00  0.000000D+00  0.000000D+00  0.000000D+00  0.000000D+00
     15  0.000000D+00  0.000000D+00  0.000000D+00  0.000000D+00  0.000000D+00
     16  0.000000D+00  0.000000D+00  0.000000D+00  0.000000D+00  0.000000D+00
     17  0.000000D+00  0.000000D+00  0.000000D+00  0.000000D+00  0.000000D+00
     18  0.000000D+00  0.000000D+00  0.000000D+00  0.000000D+00  0.000000D+00
                6             7             8             9            10 
      6  0.348482D+00
      7  0.000000D+00  0.371521D+00
      8  0.000000D+00  0.000000D+00  0.299195D+00
      9  0.000000D+00  0.000000D+00  0.254181D-01  0.272756D+00
     10  0.000000D+00  0.000000D+00  0.133757D+00  0.133332D-01  0.303091D+00
     11  0.000000D+00  0.000000D+00  0.000000D+00  0.000000D+00  0.000000D+00
     12  0.000000D+00  0.000000D+00  0.000000D+00  0.000000D+00  0.000000D+00
     13  0.000000D+00  0.000000D+00  0.000000D+00  0.000000D+00  0.000000D+00
     14  0.000000D+00  0.000000D+00 -0.244100D-01 -0.116831D-01  0.239838D-01
     15  0.000000D+00  0.000000D+00  0.411668D-01 -0.672922D-01  0.208178D-01
     16  0.000000D+00  0.000000D+00  0.000000D+00  0.000000D+00  0.000000D+00
     17  0.000000D+00  0.000000D+00  0.000000D+00  0.000000D+00  0.000000D+00
     18  0.000000D+00  0.000000D+00  0.000000D+00  0.000000D+00  0.000000D+00
               11            12            13            14            15 
     11  0.238080D+00
     12  0.148622D-01  0.257126D+00
     13  0.432773D-01  0.784771D-01  0.261524D+00
     14  0.000000D+00  0.000000D+00  0.000000D+00  0.215983D+00
     15  0.000000D+00  0.000000D+00  0.000000D+00 -0.122571D+00  0.169439D+00
     16  0.127160D-03 -0.269956D-03 -0.166599D-03  0.690000D-02  0.690000D-02
     17 -0.500949D-01  0.363742D-01  0.656302D-01  0.230000D-02  0.230000D-02
     18  0.753325D-01 -0.744191D-01 -0.128007D-01  0.230000D-02  0.230000D-02
               16            17            18 
     16  0.208798D-01
     17  0.777191D-02  0.219556D+00
     18  0.586337D-02 -0.747653D-01  0.179968D+00
 Leave Link  716 at Wed May 26 19:16:00 2021, MaxMem=   13107200 cpu:       0.0
 (Enter /programs/64bit/g09/g09-gfortran/bin/l103.exe)

 GradGradGradGradGradGradGradGradGradGradGradGradGradGradGradGradGradGrad
 Berny optimization.
 Search for a local minimum.
 Step number   1 out of a maximum of    2
 All quantities printed in internal units (Hartrees-Bohrs-Radians)
 Second derivative matrix not updated -- first step.
 The second derivative matrix:
                          d1        a1        t1        d2        a2
           d1           0.26384
           a1           0.00000   0.29919
           t1          -0.00000  -0.02441   0.21598
           d2           0.00000  -0.00000  -0.00000   0.32046
           a2          -0.00000   0.02542  -0.01168   0.00000   0.27276
           t2           0.00000   0.04117  -0.12257  -0.00000  -0.06729
           d3           0.00000   0.00000  -0.00000  -0.00000   0.00000
           d4           0.00000   0.00000   0.00000   0.00000   0.00000
           a3          -0.00000   0.13376   0.02398  -0.00000   0.01333
           d5          -0.00000   0.00000  -0.00000   0.00000  -0.00000
           a4           0.00000   0.00000   0.00000   0.00000   0.00000
           t3           0.00000   0.00000   0.00690   0.00000   0.00000
           d6           0.00000   0.00000   0.00000   0.00000   0.00000
           a5          -0.00000   0.00000  -0.00000   0.00000  -0.00000
           t4           0.00000   0.00000   0.00230   0.00000   0.00000
           d7          -0.00000   0.00000  -0.00000   0.00000  -0.00000
           a6          -0.00000   0.00000   0.00000   0.00000   0.00000
           t5           0.00000   0.00000   0.00230   0.00000  -0.00000
                          t2        d3        d4        a3        d5
           t2           0.16944
           d3          -0.00000   0.29445
           d4           0.00000  -0.00000   0.35295
           a3           0.02082   0.00000   0.00000   0.30309
           d5          -0.00000  -0.00000   0.00000  -0.00000   0.32797
           a4           0.00000  -0.00000  -0.00000   0.00000   0.00000
           t3           0.00690   0.00000  -0.00000   0.00000   0.00000
           d6           0.00000  -0.00000   0.00000  -0.00000  -0.00000
           a5          -0.00000   0.00000  -0.00000   0.00000   0.00000
           t4           0.00230  -0.00000  -0.00000  -0.00000   0.00000
           d7           0.00000   0.00000   0.00000  -0.00000   0.00000
           a6          -0.00000  -0.00000  -0.00000   0.00000   0.00000
           t5           0.00230   0.00000  -0.00000   0.00000   0.00000
                          a4        t3        d6        a5        t4
           a4           0.23808
           t3           0.00013   0.02088
           d6           0.00000  -0.00000   0.34848
           a5           0.01486  -0.00027  -0.00000   0.25713
           t4          -0.05009   0.00777  -0.00000   0.03637   0.21956
           d7          -0.00000  -0.00000  -0.00000  -0.00000  -0.00000
           a6           0.04328  -0.00017  -0.00000   0.07848   0.06563
           t5           0.07533   0.00586   0.00000  -0.07442  -0.07477
                          d7        a6        t5
           d7           0.37152
           a6          -0.00000   0.26152
           t5          -0.00000  -0.01280   0.17997
     Eigenvalues --- 1000.000001000.000001000.000001000.000001000.00000
     Eigenvalues --- 1000.000001000.000001000.000001000.000001000.00000
     Eigenvalues --- 1000.000001000.000001000.000001000.000001000.00000
     Eigenvalues --- 1000.000001000.000001000.00000
 Angle between quadratic step and forces=  90.00 degrees.
 Linear search not attempted -- first point.
 Variable       Old X    -DE/DX   Delta X   Delta X   Delta X     New X
                                 (Linear)    (Quad)   (Total)
    d1        2.95813  -0.00496   0.00000   0.00000   0.00000   2.95813
    a1        2.30146  -0.04787   0.00000   0.00000   0.00000   2.30146
    t1        1.83603   0.00692   0.00000   0.00000   0.00000   1.83603
    d2        2.10760  -0.01284   0.00000   0.00000   0.00000   2.10760
    a2        1.63609   0.03232   0.00000   0.00000   0.00000   1.63609
    t2       -2.63119   0.02149   0.00000   0.00000   0.00000  -2.63119
    d3        2.15784  -0.01782   0.00000   0.00000   0.00000   2.15784
    d4        2.05198   0.00568   0.00000   0.00000   0.00000   2.05198
    a3        2.04844  -0.01933   0.00000   0.00000   0.00000   2.04844
    d5        2.09409  -0.00577   0.00000   0.00000   0.00000   2.09409
    a4        1.75673   0.01581   0.00000   0.00000   0.00000   1.75673
    t3        3.13424   0.00803   0.00000   0.00000   0.00000   3.13424
    d6        2.05922   0.00156   0.00000   0.00000   0.00000   2.05922
    a5        1.86600   0.01734   0.00000   0.00000   0.00000   1.86600
    t4        1.82958   0.03190   0.00000   0.00000   0.00000   1.82958
    d7        2.02318   0.01385   0.00000   0.00000   0.00000   2.02318
    a6        2.09097  -0.00020   0.00000   0.00000   0.00000   2.09097
    t5       -2.09871  -0.00772   0.00000   0.00000   0.00000  -2.09871
         Item               Value     Threshold  Converged?
 Maximum Force            0.000000     0.000450     YES
 RMS     Force            0.000000     0.000300     YES
 Maximum Displacement     0.000000     0.001800     YES
 RMS     Displacement     0.000000     0.001200     YES
 Predicted change in Energy=-0.000000D+00
 Optimization completed.
    -- Stationary point found.
                       ----------------------------
                       !   Optimized Parameters   !
                       ! (Angstroms and Degrees)  !
 ----------------------                            ----------------------
 !      Name          Value   Derivative information (Atomic Units)     !
 ------------------------------------------------------------------------
 !       d1          1.5654   -DE/DX =   -0.005                         !
 !       a1        131.8637   -DE/DX =   -0.0479                        !
 !       t1        105.1968   -DE/DX =    0.0069                        !
 !       d2          1.1153   -DE/DX =   -0.0128                        !
 !       a2         93.7412   -DE/DX =    0.0323                        !
 !       t2       -150.756    -DE/DX =    0.0215                        !
 !       d3          1.1419   -DE/DX =   -0.0178                        !
 !       d4          1.0859   -DE/DX =    0.0057                        !
 !       a3        117.3672   -DE/DX =   -0.0193                        !
 !       d5          1.1081   -DE/DX =   -0.0058                        !
 !       a4        100.653    -DE/DX =    0.0158                        !
 !       t3        179.5786   -DE/DX =    0.008                         !
 !       d6          1.0897   -DE/DX =    0.0016                        !
 !       a5        106.9142   -DE/DX =    0.0173                        !
 !       t4        104.8271   -DE/DX =    0.0319                        !
 !       d7          1.0706   -DE/DX =    0.0138                        !
 !       a6        119.8036   -DE/DX =   -0.0002                        !
 !       t5       -120.2472   -DE/DX =   -0.0077                        !
 ------------------------------------------------------------------------
 GradGradGradGradGradGradGradGradGradGradGradGradGradGradGradGradGradGrad

 Leave Link  103 at Wed May 26 19:16:00 2021, MaxMem=   13107200 cpu:       0.0
 (Enter /programs/64bit/g09/g09-gfortran/bin/l9999.exe)
 1\1\GINC-MOLMOD\Force\RB3LYP\6-31+G(d,p)\C2H6\OSPITE\26-May-2021\1\\#p
  b3lyp/6-31+g(d,p) force nosym\\c2h6 molecule\\0,1\C\C,1,d1\H,1,d2,2,a
 1\H,1,d3,2,a2,3,t1,0\H,1,d4,2,a3,3,t2,0\H,2,d5,1,a4,3,t3,0\H,2,d6,1,a5
 ,6,t4,0\H,2,d7,1,a6,6,t5,0\\d1=1.56537368\a1=131.86367337\t1=105.19678
 656\d2=1.11529479\a2=93.74122655\t2=-150.75600116\d3=1.14187883\d4=1.0
 8586095\a3=117.36722992\d5=1.10814232\a4=100.65301654\t3=179.57862884\
 d6=1.08969283\a5=106.91420479\t4=104.82711472\d7=1.07061838\a6=119.803
 57663\t5=-120.24718551\\Version=EM64L-G09RevA.02\HF=-79.8123032\RMSD=9
 .990e-09\RMSF=1.831e-02\Dipole=-0.0753817,-0.081664,0.0255957\Quadrupo
 le=-0.0629261,-0.0039516,0.0668777,-0.0122191,-0.1660343,-0.1233895\PG
 =C01 [X(C2H6)]\\@


 NECESSARY EVIL: ONE WE LIKE TOO MUCH TO RELINQUISH.
 Job cpu time:  0 days  0 hours  0 minutes  8.3 seconds.
 File lengths (MBytes):  RWF=      5 Int=      0 D2E=      0 Chk=      1 Scr=      1
 Normal termination of Gaussian 09 at Wed May 26 19:16:00 2021.
