 Entering Gaussian System, Link 0=g09
 Input=c2h6_037.com
 Output=c2h6_037.log
 Initial command:
 /programs/64bit/g09/g09-gfortran/bin/l1.exe /data/scratch/Gau-6782.inp -scrdir=/data/scratch/
 Entering Link 1 = /programs/64bit/g09/g09-gfortran/bin/l1.exe PID=      6783.
  
 Copyright (c) 1988,1990,1992,1993,1995,1998,2003,2009, Gaussian, Inc.
                  All Rights Reserved.
  
 This is part of the Gaussian(R) 09 program.  It is based on
 the Gaussian(R) 03 system (copyright 2003, Gaussian, Inc.),
 the Gaussian(R) 98 system (copyright 1998, Gaussian, Inc.),
 the Gaussian(R) 94 system (copyright 1995, Gaussian, Inc.),
 the Gaussian 92(TM) system (copyright 1992, Gaussian, Inc.),
 the Gaussian 90(TM) system (copyright 1990, Gaussian, Inc.),
 the Gaussian 88(TM) system (copyright 1988, Gaussian, Inc.),
 the Gaussian 86(TM) system (copyright 1986, Carnegie Mellon
 University), and the Gaussian 82(TM) system (copyright 1983,
 Carnegie Mellon University). Gaussian is a federally registered
 trademark of Gaussian, Inc.
  
 This software contains proprietary and confidential information,
 including trade secrets, belonging to Gaussian, Inc.
  
 This software is provided under written license and may be
 used, copied, transmitted, or stored only in accord with that
 written license.
  
 The following legend is applicable only to US Government
 contracts under FAR:
  
                    RESTRICTED RIGHTS LEGEND
  
 Use, reproduction and disclosure by the US Government is
 subject to restrictions as set forth in subparagraphs (a)
 and (c) of the Commercial Computer Software - Restricted
 Rights clause in FAR 52.227-19.
  
 Gaussian, Inc.
 340 Quinnipiac St., Bldg. 40, Wallingford CT 06492
  
  
 ---------------------------------------------------------------
 Warning -- This program may not be used in any manner that
 competes with the business of Gaussian, Inc. or will provide
 assistance to any competitor of Gaussian, Inc.  The licensee
 of this program is prohibited from giving any competitor of
 Gaussian, Inc. access to this program.  By using this program,
 the user acknowledges that Gaussian, Inc. is engaged in the
 business of creating and licensing software in the field of
 computational chemistry and represents and warrants to the
 licensee that it is not a competitor of Gaussian, Inc. and that
 it will not use this program in any manner prohibited above.
 ---------------------------------------------------------------
  

 Cite this work as:
 Gaussian 09, Revision A.02,
 M. J. Frisch, G. W. Trucks, H. B. Schlegel, G. E. Scuseria, 
 M. A. Robb, J. R. Cheeseman, G. Scalmani, V. Barone, B. Mennucci, 
 G. A. Petersson, H. Nakatsuji, M. Caricato, X. Li, H. P. Hratchian, 
 A. F. Izmaylov, J. Bloino, G. Zheng, J. L. Sonnenberg, M. Hada, 
 M. Ehara, K. Toyota, R. Fukuda, J. Hasegawa, M. Ishida, T. Nakajima, 
 Y. Honda, O. Kitao, H. Nakai, T. Vreven, J. A. Montgomery, Jr., 
 J. E. Peralta, F. Ogliaro, M. Bearpark, J. J. Heyd, E. Brothers, 
 K. N. Kudin, V. N. Staroverov, R. Kobayashi, J. Normand, 
 K. Raghavachari, A. Rendell, J. C. Burant, S. S. Iyengar, J. Tomasi, 
 M. Cossi, N. Rega, J. M. Millam, M. Klene, J. E. Knox, J. B. Cross, 
 V. Bakken, C. Adamo, J. Jaramillo, R. Gomperts, R. E. Stratmann, 
 O. Yazyev, A. J. Austin, R. Cammi, C. Pomelli, J. W. Ochterski, 
 R. L. Martin, K. Morokuma, V. G. Zakrzewski, G. A. Voth, 
 P. Salvador, J. J. Dannenberg, S. Dapprich, A. D. Daniels, 
 O. Farkas, J. B. Foresman, J. V. Ortiz, J. Cioslowski, 
 and D. J. Fox, Gaussian, Inc., Wallingford CT, 2009.
 
 ******************************************
 Gaussian 09:  EM64L-G09RevA.02 11-Jun-2009
                26-May-2021 
 ******************************************
 %chk=c2h6_037.chk
 %mem=100MB
 --------------------------------
 #p b3lyp/6-31+g(d,p) force nosym
 --------------------------------
 1/10=7,30=1,38=1/1,3;
 2/12=2,15=1,17=6,18=5,40=1/2;
 3/5=1,6=6,7=111,11=2,16=1,25=1,30=1,71=1,74=-5/1,2,3;
 4//1;
 5/5=2,38=5/2;
 6/7=2,8=2,9=2,10=2,28=1/1;
 7/29=1,30=1/1,2,3,16;
 1/10=7,30=1/3;
 99//99;
 Leave Link    1 at Wed May 26 19:13:57 2021, MaxMem=   13107200 cpu:       0.0
 (Enter /programs/64bit/g09/g09-gfortran/bin/l101.exe)
 -------------
 c2h6 molecule
 -------------
 Symbolic Z-matrix:
 Charge =  0 Multiplicity = 1
 C1
 C2                   1    d1
 H3                   1    d2       2    a1
 H4                   1    d3       2    a2       3    t1       0
 H5                   1    d4       2    a3       3    t2       0
 H6                   2    d5       1    a4       3    t3       0
 H7                   2    d6       1    a5       6    t4       0
 H8                   2    d7       1    a6       6    t5       0
       Variables:
       Constants:
  d1                    1.47974                  
  a1                  148.92714                  
  t1                  102.44655                  
  d2                    1.08954                  
  a2                   91.58015                  
  t2                 -158.26059                  
  d3                    1.04627                  
  d4                    1.08716                  
  a3                   96.31744                  
  d5                    1.08833                  
  a4                   94.7147                   
  t3                  179.72225                  
  d6                    1.10129                  
  a5                   96.34997                  
  t4                  117.53545                  
  d7                    1.08771                  
  a6                  149.43621                  
  t5                 -119.99123                  
 
 NAtoms=      8 NQM=      8 NQMF=      0 NMic=      0 NMicF=      0 NTot=      8.
                    Isotopes and Nuclear Properties:
 (Nuclear quadrupole moments (NQMom) in fm**2, nuclear magnetic moments (NMagM)
  in nuclear magnetons)

  Atom         1           2           3           4           5           6           7           8
 IAtWgt=          12          12           1           1           1           1           1           1
 AtmWgt=  12.0000000  12.0000000   1.0078250   1.0078250   1.0078250   1.0078250   1.0078250   1.0078250
 NucSpn=           0           0           1           1           1           1           1           1
 AtZEff=   0.0000000   0.0000000   0.0000000   0.0000000   0.0000000   0.0000000   0.0000000   0.0000000
 NQMom=    0.0000000   0.0000000   0.0000000   0.0000000   0.0000000   0.0000000   0.0000000   0.0000000
 NMagM=    0.0000000   0.0000000   2.7928460   2.7928460   2.7928460   2.7928460   2.7928460   2.7928460
 Leave Link  101 at Wed May 26 19:13:58 2021, MaxMem=   13107200 cpu:       0.0
 (Enter /programs/64bit/g09/g09-gfortran/bin/l103.exe)

 GradGradGradGradGradGradGradGradGradGradGradGradGradGradGradGradGradGrad
 Berny optimization.
 Initialization pass.
                       ----------------------------
                       !    Initial Parameters    !
                       ! (Angstroms and Degrees)  !
 ----------------------                            ----------------------
 !      Name          Value   Derivative information (Atomic Units)     !
 ------------------------------------------------------------------------
 !       d1          1.4797   Frozen                                    !
 !       a1        148.9271   Frozen                                    !
 !       t1        102.4465   Frozen                                    !
 !       d2          1.0895   Frozen                                    !
 !       a2         91.5802   Frozen                                    !
 !       t2       -158.2606   Frozen                                    !
 !       d3          1.0463   Frozen                                    !
 !       d4          1.0872   Frozen                                    !
 !       a3         96.3174   Frozen                                    !
 !       d5          1.0883   Frozen                                    !
 !       a4         94.7147   Frozen                                    !
 !       t3        179.7222   Frozen                                    !
 !       d6          1.1013   Frozen                                    !
 !       a5         96.35     Frozen                                    !
 !       t4        117.5355   Frozen                                    !
 !       d7          1.0877   Frozen                                    !
 !       a6        149.4362   Frozen                                    !
 !       t5       -119.9912   Frozen                                    !
 ------------------------------------------------------------------------
 Trust Radius=3.00D-01 FncErr=1.00D-07 GrdErr=1.00D-07
 Number of steps in this run=   2 maximum allowed number of steps=   2.
 GradGradGradGradGradGradGradGradGradGradGradGradGradGradGradGradGradGrad

 Leave Link  103 at Wed May 26 19:13:58 2021, MaxMem=   13107200 cpu:       0.0
 (Enter /programs/64bit/g09/g09-gfortran/bin/l202.exe)
                          Input orientation:                          
 ---------------------------------------------------------------------
 Center     Atomic      Atomic             Coordinates (Angstroms)
 Number     Number       Type             X           Y           Z
 ---------------------------------------------------------------------
      1          6           0        0.000000    0.000000    0.000000
      2          6           0        0.000000    0.000000    1.479736
      3          1           0        0.562344    0.000000   -0.933207
      4          1           0       -0.225416   -1.021296   -0.028851
      5          1           0       -1.003707    0.400223   -0.119628
      6          1           0       -1.084634    0.005258    1.569191
      7          1           0        0.501291   -0.972995    1.601541
      8          1           0        0.278795    0.477693    2.416325
 ---------------------------------------------------------------------
                    Distance matrix (angstroms):
                    1          2          3          4          5
     1  C    0.000000
     2  C    1.479736   0.000000
     3  H    1.089544   2.477605   0.000000
     4  H    1.046274   1.835673   1.575269   0.000000
     5  H    1.087160   1.930174   1.809587   1.623174   0.000000
     6  H    1.907568   1.088329   2.995757   2.084660   1.736276
     7  H    1.939831   1.101294   2.715768   1.785669   2.667052
     8  H    2.478819   1.087711   3.395284   2.912058   2.842862
                    6          7          8
     6  H    0.000000
     7  H    1.863647   0.000000
     8  H    1.673251   1.678652   0.000000
 Symmetry turned off by external request.
 Stoichiometry    C2H6
 Framework group  C1[X(C2H6)]
 Deg. of freedom    18
 Full point group                 C1      NOp   1
 Rotational constants (GHZ):     96.8843788     21.4518183     20.3605906
 Leave Link  202 at Wed May 26 19:13:58 2021, MaxMem=   13107200 cpu:       0.0
 (Enter /programs/64bit/g09/g09-gfortran/bin/l301.exe)
 Standard basis: 6-31+G(d,p) (6D, 7F)
 Ernie: Thresh=  0.10000D-02 Tol=  0.10000D-05 Strict=F.
 Integral buffers will be    131072 words long.
 Raffenetti 2 integral format.
 Two-electron integral symmetry is turned off.
    68 basis functions,   106 primitive gaussians,    68 cartesian basis functions
     9 alpha electrons        9 beta electrons
       nuclear repulsion energy        43.5195070678 Hartrees.
 IExCor=  402 DFT=T Ex+Corr=B3LYP ExCW=0 ScaHFX=  0.200000
 ScaDFX=  0.800000  0.720000  1.000000  0.810000 ScalE2=  1.000000  1.000000
 IRadAn=      0 IRanWt=     -1 IRanGd=            0 ICorTp=0
 NAtoms=    8 NActive=    8 NUniq=    8 SFac= 7.50D-01 NAtFMM=   80 NAOKFM=F Big=F
 Leave Link  301 at Wed May 26 19:13:58 2021, MaxMem=   13107200 cpu:       0.0
 (Enter /programs/64bit/g09/g09-gfortran/bin/l302.exe)
 NPDir=0 NMtPBC=     1 NCelOv=     1 NCel=       1 NClECP=     1 NCelD=      1
         NCelK=      1 NCelE2=     1 NClLst=     1 CellRange=     0.0.
 One-electron integrals computed using PRISM.
 NBasis=    68 RedAO= T  NBF=    68
 NBsUse=    68 1.00D-06 NBFU=    68
 Precomputing XC quadrature grid using
 IXCGrd= 2 IRadAn=           0 IRanWt=          -1 IRanGd=           0 AccXCQ= 1.00D-10.
 NRdTot=     510 NPtTot=       65100 NUsed=       68787 NTot=       68819
 NSgBfM=    68    68    68    68    68 NAtAll=     8     8.
 Leave Link  302 at Wed May 26 19:13:58 2021, MaxMem=   13107200 cpu:       0.1
 (Enter /programs/64bit/g09/g09-gfortran/bin/l303.exe)
 DipDrv:  MaxL=1.
 Leave Link  303 at Wed May 26 19:13:58 2021, MaxMem=   13107200 cpu:       0.0
 (Enter /programs/64bit/g09/g09-gfortran/bin/l401.exe)
 Harris functional with IExCor=  402 diagonalized for initial guess.
 ExpMin= 4.38D-02 ExpMax= 3.05D+03 ExpMxC= 4.57D+02 IAcc=2 IRadAn=         0 AccDes= 0.00D+00
 HarFok:  IExCor=  402 AccDes= 0.00D+00 IRadAn=         0 IDoV= 1
 ScaDFX=  1.000000  1.000000  1.000000  1.000000
 FoFCou: FMM=F IPFlag=           0 FMFlag=      100000 FMFlg1=           0
         NFxFlg=           0 DoJE=T BraDBF=F KetDBF=T FulRan=T
         Omega=  0.000000  0.000000  1.000000  0.000000  0.000000 ICntrl=     500 IOpCl=  0
         NMat0=    1 NMatS0=    1 NMatT0=    0 NMatD0=    1 NMtDS0=    0 NMtDT0=    0
         I1Cent=           4 NGrid=           0.
 Symmetry not used in FoFCou.
 Harris En= -79.8091298757946    
 Leave Link  401 at Wed May 26 19:13:58 2021, MaxMem=   13107200 cpu:       0.7
 (Enter /programs/64bit/g09/g09-gfortran/bin/l502.exe)
 Closed shell SCF:
 Requested convergence on RMS density matrix=1.00D-08 within 128 cycles.
 Requested convergence on MAX density matrix=1.00D-06.
 Requested convergence on             energy=1.00D-06.
 No special actions if energy rises.
 Using DIIS extrapolation, IDIIS=  1040.
 Two-electron integral symmetry not used.
        68702 words used for storage of precomputed grid.
 Keep R1 ints in memory in canonical form, NReq=3743087.
 IEnd=      101552 IEndB=      101552 NGot=    13107200 MDV=    10273922
 LenX=    10273922 LenY=    10268857
 Symmetry not used in FoFDir.
 MinBra= 0 MaxBra= 2 Meth= 1.
 IRaf=       0 NMat=   1 IRICut=       1 DoRegI=T DoRafI=F ISym2E= 0 JSym2E=0.

 Cycle   1  Pass 1  IDiag  1:
 E= -79.5965702683173    
 DIIS: error= 3.92D-02 at cycle   1 NSaved=   1.
 NSaved= 1 IEnMin= 1 EnMin= -79.5965702683173     IErMin= 1 ErrMin= 3.92D-02
 ErrMax= 3.92D-02 EMaxC= 1.00D-01 BMatC= 1.31D-01 BMatP= 1.31D-01
 IDIUse=3 WtCom= 6.08D-01 WtEn= 3.92D-01
 Coeff-Com:  0.100D+01
 Coeff-En:   0.100D+01
 Coeff:      0.100D+01
 Gap=     0.241 Goal=   None    Shift=    0.000
 GapD=    0.241 DampG=1.000 DampE=0.500 DampFc=0.5000 IDamp=-1.
 Damping current iteration by 5.00D-01
 RMSDP=1.66D-02 MaxDP=2.24D-01              OVMax= 2.32D-01

 Cycle   2  Pass 1  IDiag  1:
 E= -79.6539168446520     Delta-E=       -0.057346576335 Rises=F Damp=T
 DIIS: error= 1.09D-02 at cycle   2 NSaved=   2.
 NSaved= 2 IEnMin= 2 EnMin= -79.6539168446520     IErMin= 2 ErrMin= 1.09D-02
 ErrMax= 1.09D-02 EMaxC= 1.00D-01 BMatC= 5.96D-03 BMatP= 1.31D-01
 IDIUse=3 WtCom= 8.91D-01 WtEn= 1.09D-01
 Coeff-Com:  0.126D+00 0.874D+00
 Coeff-En:   0.220D+00 0.780D+00
 Coeff:      0.136D+00 0.864D+00
 Gap=     0.305 Goal=   None    Shift=    0.000
 RMSDP=4.36D-03 MaxDP=9.13D-02 DE=-5.73D-02 OVMax= 1.30D-01

 Cycle   3  Pass 1  IDiag  1:
 E= -79.7417182186302     Delta-E=       -0.087801373978 Rises=F Damp=F
 DIIS: error= 1.99D-03 at cycle   3 NSaved=   3.
 NSaved= 3 IEnMin= 3 EnMin= -79.7417182186302     IErMin= 3 ErrMin= 1.99D-03
 ErrMax= 1.99D-03 EMaxC= 1.00D-01 BMatC= 2.96D-04 BMatP= 5.96D-03
 IDIUse=3 WtCom= 9.80D-01 WtEn= 1.99D-02
 Coeff-Com:  0.120D-01 0.157D+00 0.831D+00
 Coeff-En:   0.000D+00 0.000D+00 0.100D+01
 Coeff:      0.117D-01 0.154D+00 0.834D+00
 Gap=     0.303 Goal=   None    Shift=    0.000
 RMSDP=5.55D-04 MaxDP=6.39D-03 DE=-8.78D-02 OVMax= 5.57D-03

 Cycle   4  Pass 1  IDiag  1:
 E= -79.7419905124257     Delta-E=       -0.000272293796 Rises=F Damp=F
 DIIS: error= 4.42D-04 at cycle   4 NSaved=   4.
 NSaved= 4 IEnMin= 4 EnMin= -79.7419905124257     IErMin= 4 ErrMin= 4.42D-04
 ErrMax= 4.42D-04 EMaxC= 1.00D-01 BMatC= 1.45D-05 BMatP= 2.96D-04
 IDIUse=3 WtCom= 9.96D-01 WtEn= 4.42D-03
 Coeff-Com: -0.121D-02-0.439D-02 0.168D+00 0.838D+00
 Coeff-En:   0.000D+00 0.000D+00 0.000D+00 0.100D+01
 Coeff:     -0.121D-02-0.437D-02 0.167D+00 0.839D+00
 Gap=     0.303 Goal=   None    Shift=    0.000
 RMSDP=1.49D-04 MaxDP=1.95D-03 DE=-2.72D-04 OVMax= 1.19D-03

 Cycle   5  Pass 1  IDiag  1:
 E= -79.7420039898395     Delta-E=       -0.000013477414 Rises=F Damp=F
 DIIS: error= 1.22D-04 at cycle   5 NSaved=   5.
 NSaved= 5 IEnMin= 5 EnMin= -79.7420039898395     IErMin= 5 ErrMin= 1.22D-04
 ErrMax= 1.22D-04 EMaxC= 1.00D-01 BMatC= 1.09D-06 BMatP= 1.45D-05
 IDIUse=3 WtCom= 9.99D-01 WtEn= 1.22D-03
 Coeff-Com: -0.301D-03-0.317D-02 0.670D-01 0.372D+00 0.565D+00
 Coeff-En:   0.000D+00 0.000D+00 0.000D+00 0.000D+00 0.100D+01
 Coeff:     -0.301D-03-0.317D-02 0.669D-01 0.371D+00 0.565D+00
 Gap=     0.303 Goal=   None    Shift=    0.000
 RMSDP=1.86D-05 MaxDP=2.45D-04 DE=-1.35D-05 OVMax= 3.70D-04

 Cycle   6  Pass 1  IDiag  1:
 E= -79.7420050254254     Delta-E=       -0.000001035586 Rises=F Damp=F
 DIIS: error= 2.80D-05 at cycle   6 NSaved=   6.
 NSaved= 6 IEnMin= 6 EnMin= -79.7420050254254     IErMin= 6 ErrMin= 2.80D-05
 ErrMax= 2.80D-05 EMaxC= 1.00D-01 BMatC= 6.88D-08 BMatP= 1.09D-06
 IDIUse=1 WtCom= 1.00D+00 WtEn= 0.00D+00
 Coeff-Com:  0.166D-03-0.818D-03 0.104D-01 0.640D-01 0.224D+00 0.703D+00
 Coeff:      0.166D-03-0.818D-03 0.104D-01 0.640D-01 0.224D+00 0.703D+00
 Gap=     0.303 Goal=   None    Shift=    0.000
 RMSDP=4.29D-06 MaxDP=6.38D-05 DE=-1.04D-06 OVMax= 9.02D-05

 Cycle   7  Pass 1  IDiag  1:
 E= -79.7420050919718     Delta-E=       -0.000000066546 Rises=F Damp=F
 DIIS: error= 4.54D-06 at cycle   7 NSaved=   7.
 NSaved= 7 IEnMin= 7 EnMin= -79.7420050919718     IErMin= 7 ErrMin= 4.54D-06
 ErrMax= 4.54D-06 EMaxC= 1.00D-01 BMatC= 1.75D-09 BMatP= 6.88D-08
 IDIUse=1 WtCom= 1.00D+00 WtEn= 0.00D+00
 Coeff-Com:  0.899D-04-0.107D-03-0.792D-03-0.209D-02 0.373D-01 0.204D+00
 Coeff-Com:  0.762D+00
 Coeff:      0.899D-04-0.107D-03-0.792D-03-0.209D-02 0.373D-01 0.204D+00
 Coeff:      0.762D+00
 Gap=     0.303 Goal=   None    Shift=    0.000
 RMSDP=1.39D-06 MaxDP=1.60D-05 DE=-6.65D-08 OVMax= 1.56D-05

 Cycle   8  Pass 1  IDiag  1:
 E= -79.7420050938665     Delta-E=       -0.000000001895 Rises=F Damp=F
 DIIS: error= 3.55D-07 at cycle   8 NSaved=   8.
 NSaved= 8 IEnMin= 8 EnMin= -79.7420050938665     IErMin= 8 ErrMin= 3.55D-07
 ErrMax= 3.55D-07 EMaxC= 1.00D-01 BMatC= 1.40D-11 BMatP= 1.75D-09
 IDIUse=1 WtCom= 1.00D+00 WtEn= 0.00D+00
 Coeff-Com:  0.155D-05 0.113D-05-0.244D-03-0.114D-02-0.121D-03 0.452D-02
 Coeff-Com:  0.843D-01 0.913D+00
 Coeff:      0.155D-05 0.113D-05-0.244D-03-0.114D-02-0.121D-03 0.452D-02
 Coeff:      0.843D-01 0.913D+00
 Gap=     0.303 Goal=   None    Shift=    0.000
 RMSDP=1.19D-07 MaxDP=1.53D-06 DE=-1.89D-09 OVMax= 1.60D-06

 Cycle   9  Pass 1  IDiag  1:
 E= -79.7420050938840     Delta-E=       -0.000000000018 Rises=F Damp=F
 DIIS: error= 1.13D-07 at cycle   9 NSaved=   9.
 NSaved= 9 IEnMin= 9 EnMin= -79.7420050938840     IErMin= 9 ErrMin= 1.13D-07
 ErrMax= 1.13D-07 EMaxC= 1.00D-01 BMatC= 7.50D-13 BMatP= 1.40D-11
 IDIUse=1 WtCom= 1.00D+00 WtEn= 0.00D+00
 Coeff-Com: -0.170D-05 0.173D-05-0.461D-04-0.226D-03-0.701D-03-0.267D-02
 Coeff-Com:  0.860D-02 0.248D+00 0.747D+00
 Coeff:     -0.170D-05 0.173D-05-0.461D-04-0.226D-03-0.701D-03-0.267D-02
 Coeff:      0.860D-02 0.248D+00 0.747D+00
 Gap=     0.303 Goal=   None    Shift=    0.000
 RMSDP=3.01D-08 MaxDP=4.27D-07 DE=-1.75D-11 OVMax= 3.61D-07

 Cycle  10  Pass 1  IDiag  1:
 E= -79.7420050938849     Delta-E=       -0.000000000001 Rises=F Damp=F
 DIIS: error= 2.02D-08 at cycle  10 NSaved=  10.
 NSaved=10 IEnMin=10 EnMin= -79.7420050938849     IErMin=10 ErrMin= 2.02D-08
 ErrMax= 2.02D-08 EMaxC= 1.00D-01 BMatC= 1.97D-14 BMatP= 7.50D-13
 IDIUse=1 WtCom= 1.00D+00 WtEn= 0.00D+00
 Coeff-Com: -0.510D-06 0.444D-06-0.519D-05-0.290D-04-0.209D-03-0.919D-03
 Coeff-Com: -0.710D-03 0.307D-01 0.176D+00 0.796D+00
 Coeff:     -0.510D-06 0.444D-06-0.519D-05-0.290D-04-0.209D-03-0.919D-03
 Coeff:     -0.710D-03 0.307D-01 0.176D+00 0.796D+00
 Gap=     0.303 Goal=   None    Shift=    0.000
 RMSDP=4.82D-09 MaxDP=5.62D-08 DE=-9.09D-13 OVMax= 6.98D-08

 SCF Done:  E(RB3LYP) =  -79.7420050939     A.U. after   10 cycles
             Convg  =    0.4822D-08             -V/T =  2.0062
 KE= 7.924935568184D+01 PE=-2.707356385343D+02 EE= 6.822477069075D+01
 Leave Link  502 at Wed May 26 19:14:06 2021, MaxMem=   13107200 cpu:       7.3
 (Enter /programs/64bit/g09/g09-gfortran/bin/l601.exe)
 Copying SCF densities to generalized density rwf, IOpCl= 0 IROHF=0.

 **********************************************************************

            Population analysis using the SCF density.

 **********************************************************************

 Alpha  occ. eigenvalues --  -10.18363 -10.17613  -0.79288  -0.62189  -0.47625
 Alpha  occ. eigenvalues --   -0.44663  -0.38073  -0.32716  -0.29310
 Alpha virt. eigenvalues --    0.00966   0.02413   0.04862   0.05448   0.06922
 Alpha virt. eigenvalues --    0.08989   0.09071   0.14012   0.14609   0.17518
 Alpha virt. eigenvalues --    0.20420   0.21736   0.26704   0.32369   0.35904
 Alpha virt. eigenvalues --    0.63408   0.64901   0.65166   0.68781   0.72431
 Alpha virt. eigenvalues --    0.74042   0.89294   0.90100   0.92863   1.00042
 Alpha virt. eigenvalues --    1.05023   1.08966   1.11109   1.22285   1.30779
 Alpha virt. eigenvalues --    1.47467   1.51722   1.77893   1.86067   1.99124
 Alpha virt. eigenvalues --    2.05386   2.13378   2.14591   2.18595   2.20582
 Alpha virt. eigenvalues --    2.22029   2.31986   2.34387   2.47958   2.59519
 Alpha virt. eigenvalues --    2.70577   2.73281   2.81477   2.83502   2.93341
 Alpha virt. eigenvalues --    3.00389   3.23211   3.31159   3.40801   3.46820
 Alpha virt. eigenvalues --    3.58412   3.76692   4.34670   4.81379
          Condensed to atoms (all electrons):
              1          2          3          4          5          6
     1  C    5.278781   0.093163   0.345890   0.473651   0.455377  -0.116214
     2  C    0.093163   5.241257   0.026393  -0.128401  -0.100248   0.472427
     3  H    0.345890   0.026393   0.543821  -0.051970  -0.022232   0.006127
     4  H    0.473651  -0.128401  -0.051970   0.641282  -0.044741  -0.010946
     5  H    0.455377  -0.100248  -0.022232  -0.044741   0.588396  -0.026422
     6  H   -0.116214   0.472427   0.006127  -0.010946  -0.026422   0.605289
     7  H   -0.124732   0.470752   0.002346  -0.039478   0.009841  -0.018201
     8  H    0.046325   0.328188  -0.001857   0.007622   0.000041  -0.045753
              7          8
     1  C   -0.124732   0.046325
     2  C    0.470752   0.328188
     3  H    0.002346  -0.001857
     4  H   -0.039478   0.007622
     5  H    0.009841   0.000041
     6  H   -0.018201  -0.045753
     7  H    0.613191  -0.042580
     8  H   -0.042580   0.559246
 Mulliken atomic charges:
              1
     1  C   -0.452241
     2  C   -0.403532
     3  H    0.151482
     4  H    0.152980
     5  H    0.139989
     6  H    0.133692
     7  H    0.128862
     8  H    0.148768
 Sum of Mulliken atomic charges =  -0.00000
 Mulliken charges with hydrogens summed into heavy atoms:
              1
     1  C   -0.007790
     2  C    0.007790
 Sum of Mulliken charges with hydrogens summed into heavy atoms =  -0.00000
 Electronic spatial extent (au):  <R**2>=            142.0608
 Charge=             -0.0000 electrons
 Dipole moment (field-independent basis, Debye):
    X=             -0.2729    Y=             -0.4623    Z=             -0.0439  Tot=              0.5386
 Quadrupole moment (field-independent basis, Debye-Ang):
   XX=            -15.2638   YY=            -15.9140   ZZ=            -15.0931
   XY=             -0.7097   XZ=             -0.4959   YZ=              0.3778
 Traceless Quadrupole moment (field-independent basis, Debye-Ang):
   XX=              0.1598   YY=             -0.4904   ZZ=              0.3306
   XY=             -0.7097   XZ=             -0.4959   YZ=              0.3778
 Octapole moment (field-independent basis, Debye-Ang**2):
  XXX=              1.1459  YYY=              1.6132  ZZZ=            -33.8227  XYY=              0.9061
  XXY=              0.8903  XXZ=            -11.3169  XZZ=              1.2927  YZZ=              1.6787
  YYZ=            -12.1045  XYZ=             -0.6638
 Hexadecapole moment (field-independent basis, Debye-Ang**3):
 XXXX=            -30.3744 YYYY=            -29.4540 ZZZZ=           -138.6054 XXXY=              0.1357
 XXXZ=              0.1854 YYYX=              0.3989 YYYZ=              1.0918 ZZZX=              1.7777
 ZZZY=              4.8578 XXYY=            -10.2619 XXZZ=            -29.9260 YYZZ=            -31.3379
 XXYZ=              0.5722 YYXZ=              0.6833 ZZXY=             -0.6538
 N-N= 4.351950706778D+01 E-N=-2.707356384849D+02  KE= 7.924935568184D+01
 No NMR shielding tensors so no spin-rotation constants.
 Leave Link  601 at Wed May 26 19:14:06 2021, MaxMem=   13107200 cpu:       0.1
 (Enter /programs/64bit/g09/g09-gfortran/bin/l701.exe)
 Compute integral first derivatives.
 ... and contract with generalized density number  0.
 Leave Link  701 at Wed May 26 19:14:06 2021, MaxMem=   13107200 cpu:       0.1
 (Enter /programs/64bit/g09/g09-gfortran/bin/l702.exe)
 L702 exits ... SP integral derivatives will be done elsewhere.
 Leave Link  702 at Wed May 26 19:14:06 2021, MaxMem=   13107200 cpu:       0.0
 (Enter /programs/64bit/g09/g09-gfortran/bin/l703.exe)
 Compute integral first derivatives, UseDBF=F ICtDFT=           0.
 Integral derivatives from FoFDir, PRISM(SPDF).
 Calling FoFJK, ICntrl=      2127 FMM=F ISym2X=0 I1Cent= 0 IOpClX= 0 NMat=1 NMatS=1 NMatT=0.
 FoFCou: FMM=F IPFlag=           0 FMFlag=      100000 FMFlg1=         800
         NFxFlg=           0 DoJE=F BraDBF=F KetDBF=F FulRan=T
         Omega=  0.000000  0.000000  1.000000  0.000000  0.000000 ICntrl=    2127 IOpCl=  0
         NMat0=    1 NMatS0=    1 NMatT0=    0 NMatD0=    1 NMtDS0=    0 NMtDT0=    0
         I1Cent=           0 NGrid=           0.
 Symmetry not used in FoFCou.
 Leave Link  703 at Wed May 26 19:14:08 2021, MaxMem=   13107200 cpu:       1.6
 (Enter /programs/64bit/g09/g09-gfortran/bin/l716.exe)
 Dipole        =-1.07382138D-01-1.81870774D-01-1.72889861D-02
 -------------------------------------------------------------------
 Center     Atomic                   Forces (Hartrees/Bohr)
 Number     Number              X              Y              Z
 -------------------------------------------------------------------
      1        6          -0.041882451    0.014686159   -0.046212267
      2        6           0.019568763   -0.035333339    0.053451189
      3        1           0.027564361    0.030032524    0.012044915
      4        1          -0.015073458   -0.036619557   -0.018407086
      5        1           0.002981333    0.014335724   -0.036109381
      6        1          -0.001270866   -0.019937991    0.022631985
      7        1          -0.013970327   -0.003847975    0.027795488
      8        1           0.022082647    0.036684456   -0.015194844
 -------------------------------------------------------------------
 Cartesian Forces:  Max     0.053451189 RMS     0.027221416
 -----------------------------------------------------------------------------------------------
                       Internal Coordinate Forces (Hartree/Bohr or radian)
  Cent   Atom   N1       Length/X         N2         Alpha/Y        N3         Beta/Z          J
 -----------------------------------------------------------------------------------------------
      1  C 
      2  C        1   0.088684(     1)
      3  H        1   0.003910(     2)      2  -0.061410(     8)
      4  H        1   0.039500(     3)      2   0.034253(     9)      3   0.013492(    14)     0
      5  H        1   0.006498(     4)      2   0.073160(    10)      3   0.029446(    15)     0
      6  H        2   0.003030(     5)      1   0.046190(    11)      3   0.010939(    16)     0
      7  H        2   0.000115(     6)      1   0.058177(    12)      6  -0.029332(    17)     0
      8  H        2   0.008687(     7)      1  -0.091658(    13)      6  -0.000607(    18)     0
 -----------------------------------------------------------------------------------------------
 Internal  Forces:  Max     0.091658336 RMS     0.044604989
 Force constants in Cartesian coordinates: 
                1             2             3             4             5 
      1  0.692751D+00
      2 -0.255450D-01  0.719998D+00
      3 -0.854637D-01 -0.344843D-02  0.814698D+00
      4 -0.139830D+00  0.116535D-01  0.157823D-01  0.716630D+00
      5  0.453020D-02 -0.145844D+00  0.173951D-01 -0.879196D-01  0.627123D+00
      6 -0.670134D-02 -0.972776D-02 -0.345998D+00  0.496612D-01  0.756809D-01
      7 -0.167690D+00  0.651166D-02  0.859302D-01  0.258077D-01  0.632392D-03
      8  0.236371D-01 -0.120200D+00 -0.160548D-01 -0.787154D-02  0.291126D-01
      9  0.109047D+00  0.392388D-02 -0.296873D+00  0.155515D-01  0.381075D-03
     10 -0.910165D-01 -0.872853D-01  0.894568D-02 -0.225294D-02  0.155778D-02
     11 -0.692966D-01 -0.384136D+00 -0.112282D-01  0.660033D-03  0.461742D-03
     12  0.787245D-02 -0.201785D-01 -0.764036D-01 -0.576195D-02 -0.285159D-01
     13 -0.322211D+00  0.963715D-01 -0.251945D-01  0.507245D-02  0.544399D-03
     14  0.638729D-01 -0.103853D+00  0.133362D-01  0.507755D-02  0.457540D-02
     15 -0.314559D-01  0.197030D-01 -0.954240D-01 -0.255718D-01  0.107397D-01
     16  0.228784D-02 -0.651211D-04  0.000000D+00 -0.347414D+00  0.747803D-03
     17 -0.231597D-02 -0.106130D-02  0.000000D+00 -0.135876D-01 -0.786180D-01
     18  0.278762D-01 -0.727212D-03  0.000000D+00  0.329408D-01 -0.688818D-02
     19  0.545695D-02  0.388848D-02  0.000000D+00 -0.126486D+00  0.872180D-01
     20  0.116755D-02  0.502608D-02  0.000000D+00  0.104652D+00 -0.286541D+00
     21 -0.131318D-01  0.241460D-01  0.000000D+00 -0.237947D-01  0.313012D-01
     22  0.202522D-01 -0.552968D-02  0.000000D+00 -0.131528D+00 -0.731099D-02
     23  0.394993D-02  0.300706D-01  0.000000D+00 -0.126642D-01 -0.150270D+00
     24 -0.804309D-02 -0.136910D-01  0.000000D+00 -0.588073D-01 -0.100094D+00
                6             7             8             9            10 
      6  0.801936D+00
      7  0.000000D+00  0.147281D+00
      8  0.000000D+00 -0.464707D-02  0.790050D-01
      9  0.000000D+00 -0.121346D+00 -0.280029D-02  0.275532D+00
     10  0.000000D+00 -0.928304D-03 -0.208565D-01 -0.559389D-03  0.782120D-01
     11  0.000000D+00  0.255421D-04  0.367557D-02  0.153915D-04  0.721865D-01
     12  0.000000D+00  0.634871D-02  0.328427D-01  0.382568D-02 -0.101273D-01
     13  0.000000D+00 -0.447018D-02  0.585674D-02 -0.269370D-02  0.139480D-01
     14  0.000000D+00 -0.252252D-02  0.105070D-01 -0.152005D-02  0.355000D-01
     15  0.000000D+00  0.290666D-01 -0.139876D-01  0.175153D-01  0.174100D-02
     16  0.221873D-01  0.000000D+00  0.230125D-04  0.000000D+00  0.120825D-04
     17 -0.522816D-02  0.000000D+00  0.474707D-02  0.000000D+00  0.249240D-02
     18 -0.807366D-01  0.000000D+00  0.000000D+00  0.000000D+00  0.000000D+00
     19 -0.171367D-01  0.000000D+00 -0.418185D-02  0.000000D+00 -0.219564D-02
     20  0.229682D-01  0.000000D+00 -0.215450D-02  0.000000D+00 -0.113120D-02
     21 -0.813938D-01  0.000000D+00  0.000000D+00  0.000000D+00  0.000000D+00
     22 -0.480104D-01  0.000000D+00  0.804014D-02  0.000000D+00  0.422140D-02
     23 -0.836932D-01  0.000000D+00 -0.469244D-02  0.000000D+00 -0.246372D-02
     24 -0.293808D+00  0.000000D+00  0.000000D+00  0.000000D+00  0.000000D+00
               11            12            13            14            15 
     11  0.387711D+00
     12  0.116032D-01  0.723600D-01
     13 -0.312566D-02  0.166808D-02  0.308409D+00
     14 -0.795544D-02  0.424846D-02 -0.100052D+00  0.957113D-01
     15 -0.390421D-03  0.217890D-03  0.262201D-01 -0.160647D-01  0.776908D-01
     16 -0.266680D-05  0.000000D+00 -0.443580D-05 -0.111244D-04  0.000000D+00
     17 -0.550113D-03  0.000000D+00 -0.915026D-03 -0.229476D-02  0.000000D+00
     18  0.000000D+00  0.000000D+00  0.000000D+00  0.000000D+00  0.000000D+00
     19  0.484613D-03  0.000000D+00  0.806077D-03  0.202153D-02  0.000000D+00
     20  0.249674D-03  0.000000D+00  0.415294D-03  0.104150D-02  0.000000D+00
     21  0.000000D+00  0.000000D+00  0.000000D+00  0.000000D+00  0.000000D+00
     22 -0.931731D-03  0.000000D+00 -0.154979D-02 -0.388666D-02  0.000000D+00
     23  0.543783D-03  0.000000D+00  0.904497D-03  0.226836D-02  0.000000D+00
     24  0.000000D+00  0.000000D+00  0.000000D+00  0.000000D+00  0.000000D+00
               16            17            18            19            20 
     16  0.348168D+00
     17 -0.748273D-03  0.561740D-01
     18 -0.229580D-01  0.820171D-02  0.712168D-01
     19 -0.294665D-03  0.327314D-01 -0.549672D-02  0.112342D+00
     20 -0.145114D-03  0.161794D-01 -0.271052D-02 -0.112326D+00  0.274719D+00
     21  0.535067D-04 -0.546323D-02  0.969891D-03  0.207038D-01 -0.224099D-01
     22 -0.275465D-02 -0.176569D-01 -0.323623D-01  0.103713D-01  0.736749D-02
     23  0.201484D-03  0.542364D-02  0.212420D-02 -0.983629D-02 -0.851957D-02
     24  0.717214D-03  0.248968D-02  0.854988D-02  0.192962D-02  0.215220D-02
               21            22            23            24 
     21  0.711732D-01
     22  0.161691D-01  0.100987D+00
     23 -0.275741D-01  0.199083D-01  0.125175D+00
     24  0.925073D-02  0.642036D-01  0.109143D+00  0.276007D+00
 Force constants in internal coordinates: 
                1             2             3             4             5 
      1  0.345998D+00
      2  0.000000D+00  0.348654D+00
      3  0.000000D+00  0.000000D+00  0.403972D+00
      4  0.000000D+00  0.000000D+00  0.000000D+00  0.351429D+00
      5  0.000000D+00  0.000000D+00  0.000000D+00  0.000000D+00  0.350065D+00
      6  0.000000D+00  0.000000D+00  0.000000D+00  0.000000D+00  0.000000D+00
      7  0.000000D+00  0.000000D+00  0.000000D+00  0.000000D+00  0.000000D+00
      8  0.000000D+00  0.000000D+00  0.000000D+00  0.000000D+00  0.000000D+00
      9  0.000000D+00  0.000000D+00  0.000000D+00  0.000000D+00  0.000000D+00
     10  0.000000D+00  0.000000D+00  0.000000D+00  0.000000D+00  0.000000D+00
     11  0.000000D+00  0.000000D+00  0.000000D+00  0.000000D+00  0.000000D+00
     12  0.000000D+00  0.000000D+00  0.000000D+00  0.000000D+00  0.000000D+00
     13  0.000000D+00  0.000000D+00  0.000000D+00  0.000000D+00  0.000000D+00
     14  0.000000D+00  0.000000D+00  0.000000D+00  0.000000D+00  0.000000D+00
     15  0.000000D+00  0.000000D+00  0.000000D+00  0.000000D+00  0.000000D+00
     16  0.000000D+00  0.000000D+00  0.000000D+00  0.000000D+00  0.000000D+00
     17  0.000000D+00  0.000000D+00  0.000000D+00  0.000000D+00  0.000000D+00
     18  0.000000D+00  0.000000D+00  0.000000D+00  0.000000D+00  0.000000D+00
                6             7             8             9            10 
      6  0.335395D+00
      7  0.000000D+00  0.350785D+00
      8  0.000000D+00  0.000000D+00  0.314379D+00
      9  0.000000D+00  0.000000D+00  0.301860D-01  0.281884D+00
     10  0.000000D+00  0.000000D+00  0.144425D+00  0.890809D-03  0.313749D+00
     11  0.000000D+00  0.000000D+00  0.000000D+00  0.000000D+00  0.000000D+00
     12  0.000000D+00  0.000000D+00  0.000000D+00  0.000000D+00  0.000000D+00
     13  0.000000D+00  0.000000D+00  0.000000D+00  0.000000D+00  0.000000D+00
     14  0.000000D+00  0.000000D+00 -0.433292D-02 -0.484355D-01  0.728898D-02
     15  0.000000D+00  0.000000D+00  0.196285D-01 -0.184338D-01  0.219922D-01
     16  0.000000D+00  0.000000D+00  0.000000D+00  0.000000D+00  0.000000D+00
     17  0.000000D+00  0.000000D+00  0.000000D+00  0.000000D+00  0.000000D+00
     18  0.000000D+00  0.000000D+00  0.000000D+00  0.000000D+00  0.000000D+00
               11            12            13            14            15 
     11  0.293209D+00
     12  0.419110D-02  0.294090D+00
     13  0.713205D-01  0.783022D-01  0.260195D+00
     14  0.000000D+00  0.000000D+00  0.000000D+00  0.242983D+00
     15  0.000000D+00  0.000000D+00  0.000000D+00 -0.157747D+00  0.233690D+00
     16  0.222000D-02 -0.227617D-02  0.849765D-04  0.310199D-01  0.310199D-01
     17 -0.261554D-01  0.352609D-01  0.225831D-01  0.103400D-01  0.103400D-01
     18  0.625957D-01 -0.609840D-01 -0.184168D-02  0.103400D-01  0.103400D-01
               16            17            18 
     16  0.107913D+00
     17  0.429767D-01  0.235034D+00
     18  0.222538D-01 -0.372951D-01  0.981010D-01
 Leave Link  716 at Wed May 26 19:14:08 2021, MaxMem=   13107200 cpu:       0.0
 (Enter /programs/64bit/g09/g09-gfortran/bin/l103.exe)

 GradGradGradGradGradGradGradGradGradGradGradGradGradGradGradGradGradGrad
 Berny optimization.
 Search for a local minimum.
 Step number   1 out of a maximum of    2
 All quantities printed in internal units (Hartrees-Bohrs-Radians)
 Second derivative matrix not updated -- first step.
 The second derivative matrix:
                          d1        a1        t1        d2        a2
           d1           0.34600
           a1           0.00000   0.31438
           t1          -0.00000  -0.00433   0.24298
           d2           0.00000  -0.00000  -0.00000   0.34865
           a2           0.00000   0.03019  -0.04844  -0.00000   0.28188
           t2           0.00000   0.01963  -0.15775  -0.00000  -0.01843
           d3          -0.00000  -0.00000   0.00000   0.00000   0.00000
           d4           0.00000  -0.00000   0.00000  -0.00000   0.00000
           a3          -0.00000   0.14443   0.00729  -0.00000   0.00089
           d5          -0.00000   0.00000   0.00000   0.00000   0.00000
           a4          -0.00000   0.00000  -0.00000   0.00000  -0.00000
           t3           0.00000   0.00000   0.03102   0.00000  -0.00000
           d6           0.00000   0.00000   0.00000   0.00000   0.00000
           a5          -0.00000   0.00000  -0.00000   0.00000  -0.00000
           t4          -0.00000   0.00000   0.01034   0.00000   0.00000
           d7          -0.00000   0.00000   0.00000   0.00000   0.00000
           a6          -0.00000   0.00000  -0.00000   0.00000  -0.00000
           t5           0.00000   0.00000   0.01034   0.00000  -0.00000
                          t2        d3        d4        a3        d5
           t2           0.23369
           d3          -0.00000   0.40397
           d4          -0.00000  -0.00000   0.35143
           a3           0.02199   0.00000  -0.00000   0.31375
           d5           0.00000  -0.00000   0.00000  -0.00000   0.35006
           a4          -0.00000   0.00000  -0.00000   0.00000  -0.00000
           t3           0.03102   0.00000  -0.00000   0.00000   0.00000
           d6          -0.00000  -0.00000   0.00000  -0.00000  -0.00000
           a5           0.00000   0.00000  -0.00000   0.00000  -0.00000
           t4           0.01034  -0.00000  -0.00000  -0.00000   0.00000
           d7           0.00000  -0.00000  -0.00000   0.00000   0.00000
           a6          -0.00000   0.00000   0.00000  -0.00000   0.00000
           t5           0.01034  -0.00000  -0.00000   0.00000   0.00000
                          a4        t3        d6        a5        t4
           a4           0.29321
           t3           0.00222   0.10791
           d6           0.00000  -0.00000   0.33539
           a5           0.00419  -0.00228   0.00000   0.29409
           t4          -0.02616   0.04298  -0.00000   0.03526   0.23503
           d7           0.00000   0.00000   0.00000  -0.00000  -0.00000
           a6           0.07132   0.00008   0.00000   0.07830   0.02258
           t5           0.06260   0.02225  -0.00000  -0.06098  -0.03730
                          d7        a6        t5
           d7           0.35079
           a6          -0.00000   0.26020
           t5           0.00000  -0.00184   0.09810
     Eigenvalues --- 1000.000001000.000001000.000001000.000001000.00000
     Eigenvalues --- 1000.000001000.000001000.000001000.000001000.00000
     Eigenvalues --- 1000.000001000.000001000.000001000.000001000.00000
     Eigenvalues --- 1000.000001000.000001000.00000
 Angle between quadratic step and forces=  90.00 degrees.
 Linear search not attempted -- first point.
 Variable       Old X    -DE/DX   Delta X   Delta X   Delta X     New X
                                 (Linear)    (Quad)   (Total)
    d1        2.79630   0.08868   0.00000   0.00000   0.00000   2.79630
    a1        2.59927  -0.06141   0.00000   0.00000   0.00000   2.59927
    t1        1.78803   0.01349   0.00000   0.00000   0.00000   1.78803
    d2        2.05894   0.00391   0.00000   0.00000   0.00000   2.05894
    a2        1.59838   0.03425   0.00000   0.00000   0.00000   1.59838
    t2       -2.76217   0.02945   0.00000   0.00000   0.00000  -2.76217
    d3        1.97717   0.03950   0.00000   0.00000   0.00000   1.97717
    d4        2.05443   0.00650   0.00000   0.00000   0.00000   2.05443
    a3        1.68106   0.07316   0.00000   0.00000   0.00000   1.68106
    d5        2.05664   0.00303   0.00000   0.00000   0.00000   2.05664
    a4        1.65308   0.04619   0.00000   0.00000   0.00000   1.65308
    t3        3.13674   0.01094   0.00000   0.00000   0.00000   3.13674
    d6        2.08114   0.00011   0.00000   0.00000   0.00000   2.08114
    a5        1.68162   0.05818   0.00000   0.00000   0.00000   1.68162
    t4        2.05138  -0.02933   0.00000   0.00000   0.00000   2.05138
    d7        2.05548   0.00869   0.00000   0.00000   0.00000   2.05548
    a6        2.60815  -0.09166   0.00000   0.00000   0.00000   2.60815
    t5       -2.09424  -0.00061   0.00000   0.00000   0.00000  -2.09424
         Item               Value     Threshold  Converged?
 Maximum Force            0.000000     0.000450     YES
 RMS     Force            0.000000     0.000300     YES
 Maximum Displacement     0.000000     0.001800     YES
 RMS     Displacement     0.000000     0.001200     YES
 Predicted change in Energy=-0.000000D+00
 Optimization completed.
    -- Stationary point found.
                       ----------------------------
                       !   Optimized Parameters   !
                       ! (Angstroms and Degrees)  !
 ----------------------                            ----------------------
 !      Name          Value   Derivative information (Atomic Units)     !
 ------------------------------------------------------------------------
 !       d1          1.4797   -DE/DX =    0.0887                        !
 !       a1        148.9271   -DE/DX =   -0.0614                        !
 !       t1        102.4465   -DE/DX =    0.0135                        !
 !       d2          1.0895   -DE/DX =    0.0039                        !
 !       a2         91.5802   -DE/DX =    0.0343                        !
 !       t2       -158.2606   -DE/DX =    0.0294                        !
 !       d3          1.0463   -DE/DX =    0.0395                        !
 !       d4          1.0872   -DE/DX =    0.0065                        !
 !       a3         96.3174   -DE/DX =    0.0732                        !
 !       d5          1.0883   -DE/DX =    0.003                         !
 !       a4         94.7147   -DE/DX =    0.0462                        !
 !       t3        179.7222   -DE/DX =    0.0109                        !
 !       d6          1.1013   -DE/DX =    0.0001                        !
 !       a5         96.35     -DE/DX =    0.0582                        !
 !       t4        117.5355   -DE/DX =   -0.0293                        !
 !       d7          1.0877   -DE/DX =    0.0087                        !
 !       a6        149.4362   -DE/DX =   -0.0917                        !
 !       t5       -119.9912   -DE/DX =   -0.0006                        !
 ------------------------------------------------------------------------
 GradGradGradGradGradGradGradGradGradGradGradGradGradGradGradGradGradGrad

 Leave Link  103 at Wed May 26 19:14:08 2021, MaxMem=   13107200 cpu:       0.0
 (Enter /programs/64bit/g09/g09-gfortran/bin/l9999.exe)
 1\1\GINC-MOLMOD\Force\RB3LYP\6-31+G(d,p)\C2H6\OSPITE\26-May-2021\1\\#p
  b3lyp/6-31+g(d,p) force nosym\\c2h6 molecule\\0,1\C\C,1,d1\H,1,d2,2,a
 1\H,1,d3,2,a2,3,t1,0\H,1,d4,2,a3,3,t2,0\H,2,d5,1,a4,3,t3,0\H,2,d6,1,a5
 ,6,t4,0\H,2,d7,1,a6,6,t5,0\\d1=1.47973648\a1=148.92714004\t1=102.44654
 595\d2=1.08954424\a2=91.58015222\t2=-158.26059256\d3=1.04627442\d4=1.0
 8715975\a3=96.31744064\d5=1.08832892\a4=94.71469978\t3=179.72224768\d6
 =1.10129353\a5=96.34997231\t4=117.53545004\d7=1.08771076\a6=149.436210
 49\t5=-119.99122682\\Version=EM64L-G09RevA.02\HF=-79.7420051\RMSD=4.82
 2e-09\RMSF=2.722e-02\Dipole=-0.1073821,-0.1818708,-0.017289\Quadrupole
 =0.1188096,-0.3645939,0.2457843,-0.5276721,-0.3686832,0.280889\PG=C01 
 [X(C2H6)]\\@


 FROM WHENCE IT HAPPENS, THAT THEY WHICH TRUST TO BOOKS, DO AS THEY THAT CAST UP MANY LITTLE SUMMS INTO GREATER,
 WITHOUT CONSIDERING WETHER THOSE LITTLE SUMMES WERE RIGHTLY CAST UP OR NOT...
 AND AT LAST FINDING THE ERROUR VISIBLE, AND NOT MISTRUSTING THEIR FIRST GROUNDS,
 KNOW NOT WHICH WAY TO CLEERE THEMSELVES...
 BUT SPEND TIME IN FLUTTERING OVER THEIR BOOKES....
 AS BIRDS THAT ENTERING BY THE CHIMNEY, AND FINDING THEMSELVES INCLOSED IN A CHAMBER,
 FLUTTER AT THE FALSE LIGHT OF A GLASSE WINDOW,
 FOR WANT OF WIT TO CONSIDER WHICH WAY THEY CAME IN....
           LEVIATHAN
 Job cpu time:  0 days  0 hours  0 minutes 10.0 seconds.
 File lengths (MBytes):  RWF=      5 Int=      0 D2E=      0 Chk=      1 Scr=      1
 Normal termination of Gaussian 09 at Wed May 26 19:14:08 2021.
