 Entering Gaussian System, Link 0=g09
 Input=c2h6_004.com
 Output=c2h6_004.log
 Initial command:
 /programs/64bit/g09/g09-gfortran/bin/l1.exe /data/scratch/Gau-5915.inp -scrdir=/data/scratch/
 Entering Link 1 = /programs/64bit/g09/g09-gfortran/bin/l1.exe PID=      5916.
  
 Copyright (c) 1988,1990,1992,1993,1995,1998,2003,2009, Gaussian, Inc.
                  All Rights Reserved.
  
 This is part of the Gaussian(R) 09 program.  It is based on
 the Gaussian(R) 03 system (copyright 2003, Gaussian, Inc.),
 the Gaussian(R) 98 system (copyright 1998, Gaussian, Inc.),
 the Gaussian(R) 94 system (copyright 1995, Gaussian, Inc.),
 the Gaussian 92(TM) system (copyright 1992, Gaussian, Inc.),
 the Gaussian 90(TM) system (copyright 1990, Gaussian, Inc.),
 the Gaussian 88(TM) system (copyright 1988, Gaussian, Inc.),
 the Gaussian 86(TM) system (copyright 1986, Carnegie Mellon
 University), and the Gaussian 82(TM) system (copyright 1983,
 Carnegie Mellon University). Gaussian is a federally registered
 trademark of Gaussian, Inc.
  
 This software contains proprietary and confidential information,
 including trade secrets, belonging to Gaussian, Inc.
  
 This software is provided under written license and may be
 used, copied, transmitted, or stored only in accord with that
 written license.
  
 The following legend is applicable only to US Government
 contracts under FAR:
  
                    RESTRICTED RIGHTS LEGEND
  
 Use, reproduction and disclosure by the US Government is
 subject to restrictions as set forth in subparagraphs (a)
 and (c) of the Commercial Computer Software - Restricted
 Rights clause in FAR 52.227-19.
  
 Gaussian, Inc.
 340 Quinnipiac St., Bldg. 40, Wallingford CT 06492
  
  
 ---------------------------------------------------------------
 Warning -- This program may not be used in any manner that
 competes with the business of Gaussian, Inc. or will provide
 assistance to any competitor of Gaussian, Inc.  The licensee
 of this program is prohibited from giving any competitor of
 Gaussian, Inc. access to this program.  By using this program,
 the user acknowledges that Gaussian, Inc. is engaged in the
 business of creating and licensing software in the field of
 computational chemistry and represents and warrants to the
 licensee that it is not a competitor of Gaussian, Inc. and that
 it will not use this program in any manner prohibited above.
 ---------------------------------------------------------------
  

 Cite this work as:
 Gaussian 09, Revision A.02,
 M. J. Frisch, G. W. Trucks, H. B. Schlegel, G. E. Scuseria, 
 M. A. Robb, J. R. Cheeseman, G. Scalmani, V. Barone, B. Mennucci, 
 G. A. Petersson, H. Nakatsuji, M. Caricato, X. Li, H. P. Hratchian, 
 A. F. Izmaylov, J. Bloino, G. Zheng, J. L. Sonnenberg, M. Hada, 
 M. Ehara, K. Toyota, R. Fukuda, J. Hasegawa, M. Ishida, T. Nakajima, 
 Y. Honda, O. Kitao, H. Nakai, T. Vreven, J. A. Montgomery, Jr., 
 J. E. Peralta, F. Ogliaro, M. Bearpark, J. J. Heyd, E. Brothers, 
 K. N. Kudin, V. N. Staroverov, R. Kobayashi, J. Normand, 
 K. Raghavachari, A. Rendell, J. C. Burant, S. S. Iyengar, J. Tomasi, 
 M. Cossi, N. Rega, J. M. Millam, M. Klene, J. E. Knox, J. B. Cross, 
 V. Bakken, C. Adamo, J. Jaramillo, R. Gomperts, R. E. Stratmann, 
 O. Yazyev, A. J. Austin, R. Cammi, C. Pomelli, J. W. Ochterski, 
 R. L. Martin, K. Morokuma, V. G. Zakrzewski, G. A. Voth, 
 P. Salvador, J. J. Dannenberg, S. Dapprich, A. D. Daniels, 
 O. Farkas, J. B. Foresman, J. V. Ortiz, J. Cioslowski, 
 and D. J. Fox, Gaussian, Inc., Wallingford CT, 2009.
 
 ******************************************
 Gaussian 09:  EM64L-G09RevA.02 11-Jun-2009
                26-May-2021 
 ******************************************
 %chk=c2h6_004.chk
 %mem=100MB
 --------------------------------
 #p b3lyp/6-31+g(d,p) force nosym
 --------------------------------
 1/10=7,30=1,38=1/1,3;
 2/12=2,15=1,17=6,18=5,40=1/2;
 3/5=1,6=6,7=111,11=2,16=1,25=1,30=1,71=1,74=-5/1,2,3;
 4//1;
 5/5=2,38=5/2;
 6/7=2,8=2,9=2,10=2,28=1/1;
 7/29=1,30=1/1,2,3,16;
 1/10=7,30=1/3;
 99//99;
 Leave Link    1 at Wed May 26 19:08:01 2021, MaxMem=   13107200 cpu:       0.0
 (Enter /programs/64bit/g09/g09-gfortran/bin/l101.exe)
 -------------
 c2h6 molecule
 -------------
 Symbolic Z-matrix:
 Charge =  0 Multiplicity = 1
 C1
 C2                   1    d1
 H3                   1    d2       2    a1
 H4                   1    d3       2    a2       3    t1       0
 H5                   1    d4       2    a3       3    t2       0
 H6                   2    d5       1    a4       3    t3       0
 H7                   2    d6       1    a5       6    t4       0
 H8                   2    d7       1    a6       6    t5       0
       Variables:
       Constants:
  d1                    3.46817                  
  a1                  178.99067                  
  t1                  119.9943                   
  d2                    1.13223                  
  a2                  109.99557                  
  t2                 -178.99407                  
  d3                    1.18625                  
  d4                    1.16255                  
  a3                  108.99454                  
  d5                    1.10729                  
  a4                  108.99639                  
  t3                  179.99996                  
  d6                    1.1065                   
  a5                  108.99629                  
  t4                  120.00019                  
  d7                    1.16784                  
  a6                  178.99221                  
  t5                 -120.                       
 
 NAtoms=      8 NQM=      8 NQMF=      0 NMic=      0 NMicF=      0 NTot=      8.
                    Isotopes and Nuclear Properties:
 (Nuclear quadrupole moments (NQMom) in fm**2, nuclear magnetic moments (NMagM)
  in nuclear magnetons)

  Atom         1           2           3           4           5           6           7           8
 IAtWgt=          12          12           1           1           1           1           1           1
 AtmWgt=  12.0000000  12.0000000   1.0078250   1.0078250   1.0078250   1.0078250   1.0078250   1.0078250
 NucSpn=           0           0           1           1           1           1           1           1
 AtZEff=   0.0000000   0.0000000   0.0000000   0.0000000   0.0000000   0.0000000   0.0000000   0.0000000
 NQMom=    0.0000000   0.0000000   0.0000000   0.0000000   0.0000000   0.0000000   0.0000000   0.0000000
 NMagM=    0.0000000   0.0000000   2.7928460   2.7928460   2.7928460   2.7928460   2.7928460   2.7928460
 Leave Link  101 at Wed May 26 19:08:01 2021, MaxMem=   13107200 cpu:       0.0
 (Enter /programs/64bit/g09/g09-gfortran/bin/l103.exe)

 GradGradGradGradGradGradGradGradGradGradGradGradGradGradGradGradGradGrad
 Berny optimization.
 Initialization pass.
                       ----------------------------
                       !    Initial Parameters    !
                       ! (Angstroms and Degrees)  !
 ----------------------                            ----------------------
 !      Name          Value   Derivative information (Atomic Units)     !
 ------------------------------------------------------------------------
 !       d1          3.4682   Frozen                                    !
 !       a1        178.9907   Frozen                                    !
 !       t1        119.9943   Frozen                                    !
 !       d2          1.1322   Frozen                                    !
 !       a2        109.9956   Frozen                                    !
 !       t2       -178.9941   Frozen                                    !
 !       d3          1.1862   Frozen                                    !
 !       d4          1.1625   Frozen                                    !
 !       a3        108.9945   Frozen                                    !
 !       d5          1.1073   Frozen                                    !
 !       a4        108.9964   Frozen                                    !
 !       t3        180.0      Frozen                                    !
 !       d6          1.1065   Frozen                                    !
 !       a5        108.9963   Frozen                                    !
 !       t4        120.0002   Frozen                                    !
 !       d7          1.1678   Frozen                                    !
 !       a6        178.9922   Frozen                                    !
 !       t5       -120.0      Frozen                                    !
 ------------------------------------------------------------------------
 Trust Radius=3.00D-01 FncErr=1.00D-07 GrdErr=1.00D-07
 Number of steps in this run=   2 maximum allowed number of steps=   2.
 GradGradGradGradGradGradGradGradGradGradGradGradGradGradGradGradGradGrad

 Leave Link  103 at Wed May 26 19:08:01 2021, MaxMem=   13107200 cpu:       0.0
 (Enter /programs/64bit/g09/g09-gfortran/bin/l202.exe)
                          Input orientation:                          
 ---------------------------------------------------------------------
 Center     Atomic      Atomic             Coordinates (Angstroms)
 Number     Number       Type             X           Y           Z
 ---------------------------------------------------------------------
      1          6           0        0.000000    0.000000    0.000000
      2          6           0        0.000000    0.000000    3.468169
      3          1           0        0.019945    0.000000   -1.132058
      4          1           0       -0.557274   -0.965449   -0.405635
      5          1           0       -1.099079    0.019298   -0.378384
      6          1           0       -1.046986    0.000001    3.828601
      7          1           0        0.523123   -0.906071    3.828343
      8          1           0        0.010270    0.017789    4.635829
 ---------------------------------------------------------------------
                    Distance matrix (angstroms):
                    1          2          3          4          5
     1  C    0.000000
     2  C    3.468169   0.000000
     3  H    1.132234   4.600270   0.000000
     4  H    1.186249   4.031005   1.339017   0.000000
     5  H    1.162550   4.000540   1.349300   1.124288   0.000000
     6  H    3.969177   1.107290   5.074099   4.370431   4.207352
     7  H    3.968732   1.106503   5.067518   4.370052   4.602652
     8  H    4.635875   1.167841   5.767923   5.167710   5.135465
                    6          7          8
     6  H    0.000000
     7  H    1.812790   0.000000
     8  H    1.330310   1.329875   0.000000
 Symmetry turned off by external request.
 Stoichiometry    C2H6
 Framework group  C1[X(C2H6)]
 Deg. of freedom    18
 Full point group                 C1      NOp   1
 Rotational constants (GHZ):    116.0972603      4.6540823      4.6089631
 Leave Link  202 at Wed May 26 19:08:01 2021, MaxMem=   13107200 cpu:       0.0
 (Enter /programs/64bit/g09/g09-gfortran/bin/l301.exe)
 Standard basis: 6-31+G(d,p) (6D, 7F)
 Ernie: Thresh=  0.10000D-02 Tol=  0.10000D-05 Strict=F.
 Integral buffers will be    131072 words long.
 Raffenetti 2 integral format.
 Two-electron integral symmetry is turned off.
    68 basis functions,   106 primitive gaussians,    68 cartesian basis functions
     9 alpha electrons        9 beta electrons
       nuclear repulsion energy        30.0513165392 Hartrees.
 IExCor=  402 DFT=T Ex+Corr=B3LYP ExCW=0 ScaHFX=  0.200000
 ScaDFX=  0.800000  0.720000  1.000000  0.810000 ScalE2=  1.000000  1.000000
 IRadAn=      0 IRanWt=     -1 IRanGd=            0 ICorTp=0
 NAtoms=    8 NActive=    8 NUniq=    8 SFac= 7.50D-01 NAtFMM=   80 NAOKFM=F Big=F
 Leave Link  301 at Wed May 26 19:08:01 2021, MaxMem=   13107200 cpu:       0.0
 (Enter /programs/64bit/g09/g09-gfortran/bin/l302.exe)
 NPDir=0 NMtPBC=     1 NCelOv=     1 NCel=       1 NClECP=     1 NCelD=      1
         NCelK=      1 NCelE2=     1 NClLst=     1 CellRange=     0.0.
 One-electron integrals computed using PRISM.
 NBasis=    68 RedAO= T  NBF=    68
 NBsUse=    68 1.00D-06 NBFU=    68
 Precomputing XC quadrature grid using
 IXCGrd= 2 IRadAn=           0 IRanWt=          -1 IRanGd=           0 AccXCQ= 1.00D-10.
 NRdTot=     518 NPtTot=       65392 NUsed=       69135 NTot=       69167
 NSgBfM=    68    68    68    68    68 NAtAll=     8     8.
 Leave Link  302 at Wed May 26 19:08:01 2021, MaxMem=   13107200 cpu:       0.1
 (Enter /programs/64bit/g09/g09-gfortran/bin/l303.exe)
 DipDrv:  MaxL=1.
 Leave Link  303 at Wed May 26 19:08:01 2021, MaxMem=   13107200 cpu:       0.0
 (Enter /programs/64bit/g09/g09-gfortran/bin/l401.exe)
 Harris functional with IExCor=  402 diagonalized for initial guess.
 ExpMin= 4.38D-02 ExpMax= 3.05D+03 ExpMxC= 4.57D+02 IAcc=2 IRadAn=         0 AccDes= 0.00D+00
 HarFok:  IExCor=  402 AccDes= 0.00D+00 IRadAn=         0 IDoV= 1
 ScaDFX=  1.000000  1.000000  1.000000  1.000000
 FoFCou: FMM=F IPFlag=           0 FMFlag=      100000 FMFlg1=           0
         NFxFlg=           0 DoJE=T BraDBF=F KetDBF=T FulRan=T
         Omega=  0.000000  0.000000  1.000000  0.000000  0.000000 ICntrl=     500 IOpCl=  0
         NMat0=    1 NMatS0=    1 NMatT0=    0 NMatD0=    1 NMtDS0=    0 NMtDT0=    0
         I1Cent=           4 NGrid=           0.
 Symmetry not used in FoFCou.
 Harris En= -79.4267491564630    
 Leave Link  401 at Wed May 26 19:08:02 2021, MaxMem=   13107200 cpu:       0.7
 (Enter /programs/64bit/g09/g09-gfortran/bin/l502.exe)
 Closed shell SCF:
 Requested convergence on RMS density matrix=1.00D-08 within 128 cycles.
 Requested convergence on MAX density matrix=1.00D-06.
 Requested convergence on             energy=1.00D-06.
 No special actions if energy rises.
 Using DIIS extrapolation, IDIIS=  1040.
 Two-electron integral symmetry not used.
        69050 words used for storage of precomputed grid.
 Keep R1 ints in memory in canonical form, NReq=3743435.
 IEnd=      101900 IEndB=      101900 NGot=    13107200 MDV=    10273574
 LenX=    10273574 LenY=    10268509
 Symmetry not used in FoFDir.
 MinBra= 0 MaxBra= 2 Meth= 1.
 IRaf=       0 NMat=   1 IRICut=       1 DoRegI=T DoRafI=F ISym2E= 0 JSym2E=0.

 Cycle   1  Pass 1  IDiag  1:
 E= -79.0189373584717    
 DIIS: error= 4.64D-02 at cycle   1 NSaved=   1.
 NSaved= 1 IEnMin= 1 EnMin= -79.0189373584717     IErMin= 1 ErrMin= 4.64D-02
 ErrMax= 4.64D-02 EMaxC= 1.00D-01 BMatC= 1.62D-01 BMatP= 1.62D-01
 IDIUse=3 WtCom= 5.36D-01 WtEn= 4.64D-01
 Coeff-Com:  0.100D+01
 Coeff-En:   0.100D+01
 Coeff:      0.100D+01
 Gap=    -0.450 Goal=   None    Shift=    0.000
 GapD=   -0.450 DampG=0.250 DampE=0.500 DampFc=0.2500 IDamp=-1.
 Damping current iteration by 2.50D-01
 RMSDP=6.10D-02 MaxDP=1.57D+00              OVMax= 9.95D-01

 Cycle   2  Pass 1  IDiag  1:
 E= -78.8701839580145     Delta-E=        0.148753400457 Rises=F Damp=T
 DIIS: error= 2.40D-02 at cycle   2 NSaved=   2.
 NSaved= 2 IEnMin= 1 EnMin= -79.0189373584717     IErMin= 2 ErrMin= 2.40D-02
 ErrMax= 2.40D-02 EMaxC= 1.00D-01 BMatC= 3.11D-02 BMatP= 1.62D-01
 IDIUse=3 WtCom= 7.60D-01 WtEn= 2.40D-01
 Coeff-Com:  0.109D+00 0.891D+00
 Coeff-En:   0.633D+00 0.367D+00
 Coeff:      0.234D+00 0.766D+00
 Gap=    -0.402 Goal=   None    Shift=    0.000
 RMSDP=1.77D-02 MaxDP=3.58D-01 DE= 1.49D-01 OVMax= 9.99D-01

 Cycle   3  Pass 1  IDiag  1:
 E= -79.1108427873169     Delta-E=       -0.240658829302 Rises=F Damp=F
 DIIS: error= 3.34D-02 at cycle   3 NSaved=   3.
 NSaved= 3 IEnMin= 3 EnMin= -79.1108427873169     IErMin= 2 ErrMin= 2.40D-02
 ErrMax= 3.34D-02 EMaxC= 1.00D-01 BMatC= 6.61D-02 BMatP= 3.11D-02
 IDIUse=2 WtCom= 0.00D+00 WtEn= 1.00D+00
 EnCoef did     3 forward-backward iterations
 Coeff-En:   0.196D-01 0.273D+00 0.707D+00
 Coeff:      0.196D-01 0.273D+00 0.707D+00
 Gap=    -0.039 Goal=   None    Shift=    0.000
 RMSDP=1.59D-02 MaxDP=2.77D-01 DE=-2.41D-01 OVMax= 9.89D-01

 Cycle   4  Pass 1  IDiag  1:
 E= -78.5831589269389     Delta-E=        0.527683860378 Rises=F Damp=F
 DIIS: error= 6.03D-02 at cycle   4 NSaved=   4.
 NSaved= 4 IEnMin= 3 EnMin= -79.1108427873169     IErMin= 2 ErrMin= 2.40D-02
 ErrMax= 6.03D-02 EMaxC= 1.00D-01 BMatC= 3.67D-01 BMatP= 3.11D-02
 IDIUse=2 WtCom= 0.00D+00 WtEn= 1.00D+00
 EnCoef did    10 forward-backward iterations
 Coeff-En:   0.331D-01 0.000D+00 0.636D+00 0.331D+00
 Coeff:      0.331D-01 0.000D+00 0.636D+00 0.331D+00
 Gap=     0.008 Goal=   None    Shift=    0.000
 RMSDP=1.23D-02 MaxDP=1.39D-01 DE= 5.28D-01 OVMax= 7.49D-01

 Cycle   5  Pass 1  IDiag  1:
 E= -79.2550348016781     Delta-E=       -0.671875874739 Rises=F Damp=F
 DIIS: error= 3.33D-02 at cycle   5 NSaved=   5.
 NSaved= 5 IEnMin= 5 EnMin= -79.2550348016781     IErMin= 2 ErrMin= 2.40D-02
 ErrMax= 3.33D-02 EMaxC= 1.00D-01 BMatC= 3.67D-02 BMatP= 3.11D-02
 IDIUse=2 WtCom= 0.00D+00 WtEn= 1.00D+00
 EnCoef did    12 forward-backward iterations
 Coeff-En:   0.525D-01 0.000D+00 0.304D+00 0.000D+00 0.643D+00
 Coeff:      0.525D-01 0.000D+00 0.304D+00 0.000D+00 0.643D+00
 Gap=     0.019 Goal=   None    Shift=    0.000
 RMSDP=9.42D-03 MaxDP=1.15D-01 DE=-6.72D-01 OVMax= 6.07D-01

 Cycle   6  Pass 1  IDiag  1:
 E= -79.2171303135361     Delta-E=        0.037904488142 Rises=F Damp=F
 DIIS: error= 2.58D-02 at cycle   6 NSaved=   6.
 NSaved= 6 IEnMin= 5 EnMin= -79.2550348016781     IErMin= 2 ErrMin= 2.40D-02
 ErrMax= 2.58D-02 EMaxC= 1.00D-01 BMatC= 5.47D-02 BMatP= 3.11D-02
 IDIUse=2 WtCom= 0.00D+00 WtEn= 1.00D+00
 Coeff-En:   0.000D+00 0.000D+00 0.000D+00 0.000D+00 0.550D+00 0.450D+00
 Coeff:      0.000D+00 0.000D+00 0.000D+00 0.000D+00 0.550D+00 0.450D+00
 Gap=     0.024 Goal=   None    Shift=    0.000
 RMSDP=6.45D-03 MaxDP=9.81D-02 DE= 3.79D-02 OVMax= 3.26D-01

 Cycle   7  Pass 1  IDiag  1:
 E= -79.3356596244987     Delta-E=       -0.118529310963 Rises=F Damp=F
 DIIS: error= 1.31D-02 at cycle   7 NSaved=   7.
 NSaved= 7 IEnMin= 7 EnMin= -79.3356596244987     IErMin= 7 ErrMin= 1.31D-02
 ErrMax= 1.31D-02 EMaxC= 1.00D-01 BMatC= 9.96D-03 BMatP= 3.11D-02
 IDIUse=3 WtCom= 8.69D-01 WtEn= 1.31D-01
 Coeff-Com: -0.662D-01 0.709D-01-0.155D-01 0.702D-02 0.189D+00 0.400D+00
 Coeff-Com:  0.415D+00
 Coeff-En:   0.000D+00 0.000D+00 0.000D+00 0.000D+00 0.000D+00 0.174D+00
 Coeff-En:   0.826D+00
 Coeff:     -0.575D-01 0.617D-01-0.134D-01 0.610D-02 0.164D+00 0.371D+00
 Coeff:      0.468D+00
 Gap=     0.033 Goal=   None    Shift=    0.000
 RMSDP=2.66D-03 MaxDP=4.11D-02 DE=-1.19D-01 OVMax= 1.11D-01

 Cycle   8  Pass 1  IDiag  1:
 E= -79.3351353242660     Delta-E=        0.000524300233 Rises=F Damp=F
 DIIS: error= 1.13D-02 at cycle   8 NSaved=   8.
 NSaved= 8 IEnMin= 7 EnMin= -79.3356596244987     IErMin= 8 ErrMin= 1.13D-02
 ErrMax= 1.13D-02 EMaxC= 1.00D-01 BMatC= 7.01D-03 BMatP= 9.96D-03
 IDIUse=3 WtCom= 8.87D-01 WtEn= 1.13D-01
 Coeff-Com: -0.282D-01 0.391D-01-0.207D-01-0.643D-02 0.112D+00 0.998D-02
 Coeff-Com:  0.279D+00 0.616D+00
 Coeff-En:   0.000D+00 0.000D+00 0.000D+00 0.000D+00 0.000D+00 0.000D+00
 Coeff-En:   0.507D+00 0.493D+00
 Coeff:     -0.250D-01 0.347D-01-0.184D-01-0.570D-02 0.991D-01 0.885D-02
 Coeff:      0.305D+00 0.602D+00
 Gap=     0.037 Goal=   None    Shift=    0.000
 RMSDP=7.24D-04 MaxDP=1.51D-02 DE= 5.24D-04 OVMax= 3.84D-02

 Cycle   9  Pass 1  IDiag  1:
 E= -79.3402049683185     Delta-E=       -0.005069644052 Rises=F Damp=F
 DIIS: error= 9.20D-03 at cycle   9 NSaved=   9.
 NSaved= 9 IEnMin= 9 EnMin= -79.3402049683185     IErMin= 9 ErrMin= 9.20D-03
 ErrMax= 9.20D-03 EMaxC= 1.00D-01 BMatC= 4.49D-03 BMatP= 7.01D-03
 IDIUse=3 WtCom= 9.08D-01 WtEn= 9.20D-02
 Coeff-Com:  0.737D-02 0.258D-01-0.110D-01-0.517D-02 0.739D-01-0.110D+00
 Coeff-Com:  0.191D+00-0.113D+00 0.941D+00
 Coeff-En:   0.000D+00 0.000D+00 0.000D+00 0.000D+00 0.000D+00 0.000D+00
 Coeff-En:   0.424D+00 0.000D+00 0.576D+00
 Coeff:      0.669D-02 0.234D-01-0.995D-02-0.469D-02 0.671D-01-0.996D-01
 Coeff:      0.213D+00-0.103D+00 0.907D+00
 Gap=     0.037 Goal=   None    Shift=    0.000
 RMSDP=5.91D-04 MaxDP=1.34D-02 DE=-5.07D-03 OVMax= 3.42D-02

 Cycle  10  Pass 1  IDiag  1:
 E= -79.3442635044320     Delta-E=       -0.004058536114 Rises=F Damp=F
 DIIS: error= 6.70D-03 at cycle  10 NSaved=  10.
 NSaved=10 IEnMin=10 EnMin= -79.3442635044320     IErMin=10 ErrMin= 6.70D-03
 ErrMax= 6.70D-03 EMaxC= 1.00D-01 BMatC= 2.42D-03 BMatP= 4.49D-03
 IDIUse=3 WtCom= 9.33D-01 WtEn= 6.70D-02
 Coeff-Com: -0.213D-01 0.307D-01-0.139D-01-0.540D-02 0.849D-02 0.937D-01
 Coeff-Com:  0.100D+00 0.138D+00-0.268D+01 0.335D+01
 Coeff-En:   0.000D+00 0.000D+00 0.000D+00 0.000D+00 0.000D+00 0.000D+00
 Coeff-En:   0.307D+00 0.000D+00 0.000D+00 0.693D+00
 Coeff:     -0.199D-01 0.287D-01-0.129D-01-0.504D-02 0.792D-02 0.875D-01
 Coeff:      0.114D+00 0.129D+00-0.250D+01 0.317D+01
 Gap=     0.037 Goal=   None    Shift=    0.000
 RMSDP=1.19D-03 MaxDP=2.23D-02 DE=-4.06D-03 OVMax= 6.21D-02

 Cycle  11  Pass 1  IDiag  1:
 E= -79.3483146009472     Delta-E=       -0.004051096515 Rises=F Damp=F
 DIIS: error= 2.67D-03 at cycle  11 NSaved=  11.
 NSaved=11 IEnMin=11 EnMin= -79.3483146009472     IErMin=11 ErrMin= 2.67D-03
 ErrMax= 2.67D-03 EMaxC= 1.00D-01 BMatC= 3.19D-04 BMatP= 2.42D-03
 IDIUse=3 WtCom= 9.73D-01 WtEn= 2.67D-02
 Coeff-Com: -0.243D-01 0.135D-01-0.429D-02-0.445D-02 0.362D-04 0.738D-01
 Coeff-Com: -0.206D-01 0.232D+00-0.114D+01 0.401D+00 0.147D+01
 Coeff-En:   0.000D+00 0.000D+00 0.000D+00 0.000D+00 0.000D+00 0.000D+00
 Coeff-En:   0.000D+00 0.000D+00 0.000D+00 0.000D+00 0.100D+01
 Coeff:     -0.236D-01 0.131D-01-0.418D-02-0.433D-02 0.352D-04 0.719D-01
 Coeff:     -0.201D-01 0.226D+00-0.111D+01 0.391D+00 0.146D+01
 Gap=     0.036 Goal=   None    Shift=    0.000
 RMSDP=8.28D-04 MaxDP=1.46D-02 DE=-4.05D-03 OVMax= 3.98D-02

 Cycle  12  Pass 1  IDiag  1:
 E= -79.3489896852545     Delta-E=       -0.000675084307 Rises=F Damp=F
 DIIS: error= 4.48D-04 at cycle  12 NSaved=  12.
 NSaved=12 IEnMin=12 EnMin= -79.3489896852545     IErMin=12 ErrMin= 4.48D-04
 ErrMax= 4.48D-04 EMaxC= 1.00D-01 BMatC= 1.40D-05 BMatP= 3.19D-04
 IDIUse=3 WtCom= 9.96D-01 WtEn= 4.48D-03
 Coeff-Com: -0.207D-02 0.335D-02 0.191D-02-0.182D-02 0.111D-01-0.946D-02
 Coeff-Com:  0.841D-02 0.322D-01 0.170D+00-0.111D+00-0.577D-01 0.955D+00
 Coeff-En:   0.000D+00 0.000D+00 0.000D+00 0.000D+00 0.000D+00 0.000D+00
 Coeff-En:   0.000D+00 0.000D+00 0.000D+00 0.000D+00 0.000D+00 0.100D+01
 Coeff:     -0.206D-02 0.333D-02 0.190D-02-0.181D-02 0.110D-01-0.941D-02
 Coeff:      0.837D-02 0.321D-01 0.169D+00-0.110D+00-0.574D-01 0.955D+00
 Gap=     0.037 Goal=   None    Shift=    0.000
 RMSDP=2.39D-04 MaxDP=5.78D-03 DE=-6.75D-04 OVMax= 1.31D-02

 Cycle  13  Pass 1  IDiag  1:
 E= -79.3489301988066     Delta-E=        0.000059486448 Rises=F Damp=F
 DIIS: error= 9.39D-04 at cycle  13 NSaved=  13.
 NSaved=13 IEnMin=12 EnMin= -79.3489896852545     IErMin=12 ErrMin= 4.48D-04
 ErrMax= 9.39D-04 EMaxC= 1.00D-01 BMatC= 3.99D-05 BMatP= 1.40D-05
 IDIUse=3 WtCom= 9.96D-01 WtEn= 4.48D-03
 Coeff-Com:  0.146D-04-0.579D-03-0.533D-03 0.159D-03-0.906D-03 0.139D-02
 Coeff-Com: -0.710D-02 0.312D-01-0.101D-01-0.735D-01-0.105D+00 0.475D+00
 Coeff-Com:  0.690D+00
 Coeff-En:   0.000D+00 0.000D+00 0.000D+00 0.000D+00 0.000D+00 0.000D+00
 Coeff-En:   0.000D+00 0.000D+00 0.000D+00 0.000D+00 0.000D+00 0.706D+00
 Coeff-En:   0.294D+00
 Coeff:      0.145D-04-0.576D-03-0.531D-03 0.158D-03-0.902D-03 0.138D-02
 Coeff:     -0.707D-02 0.311D-01-0.100D-01-0.731D-01-0.105D+00 0.476D+00
 Coeff:      0.688D+00
 Gap=     0.036 Goal=   None    Shift=    0.000
 RMSDP=2.96D-04 MaxDP=5.37D-03 DE= 5.95D-05 OVMax= 1.40D-02

 Cycle  14  Pass 1  IDiag  1:
 E= -79.3490113679393     Delta-E=       -0.000081169133 Rises=F Damp=F
 DIIS: error= 2.48D-04 at cycle  14 NSaved=  14.
 NSaved=14 IEnMin=14 EnMin= -79.3490113679393     IErMin=14 ErrMin= 2.48D-04
 ErrMax= 2.48D-04 EMaxC= 1.00D-01 BMatC= 2.83D-06 BMatP= 1.40D-05
 IDIUse=3 WtCom= 9.98D-01 WtEn= 2.48D-03
 Coeff-Com:  0.495D-03-0.486D-03 0.154D-03 0.296D-03-0.123D-02-0.109D-02
 Coeff-Com: -0.456D-02 0.233D-01-0.405D-01 0.122D-01-0.725D-01 0.127D+00
 Coeff-Com:  0.390D+00 0.567D+00
 Coeff-En:   0.000D+00 0.000D+00 0.000D+00 0.000D+00 0.000D+00 0.000D+00
 Coeff-En:   0.000D+00 0.000D+00 0.000D+00 0.000D+00 0.000D+00 0.000D+00
 Coeff-En:   0.110D-01 0.989D+00
 Coeff:      0.494D-03-0.485D-03 0.153D-03 0.295D-03-0.123D-02-0.109D-02
 Coeff:     -0.455D-02 0.232D-01-0.404D-01 0.122D-01-0.723D-01 0.127D+00
 Coeff:      0.389D+00 0.568D+00
 Gap=     0.036 Goal=   None    Shift=    0.000
 RMSDP=3.17D-05 MaxDP=5.40D-04 DE=-8.12D-05 OVMax= 1.67D-03

 Cycle  15  Pass 1  IDiag  1:
 E= -79.3490166546717     Delta-E=       -0.000005286732 Rises=F Damp=F
 DIIS: error= 4.58D-05 at cycle  15 NSaved=  15.
 NSaved=15 IEnMin=15 EnMin= -79.3490166546717     IErMin=15 ErrMin= 4.58D-05
 ErrMax= 4.58D-05 EMaxC= 1.00D-01 BMatC= 1.88D-07 BMatP= 2.83D-06
 IDIUse=1 WtCom= 1.00D+00 WtEn= 0.00D+00
 Coeff-Com:  0.391D-04-0.123D-03 0.319D-03 0.496D-04-0.191D-03-0.131D-02
 Coeff-Com:  0.418D-03 0.209D-01-0.109D-01-0.228D-01-0.837D-03-0.615D-01
 Coeff-Com: -0.621D-01-0.640D+00 0.178D+01
 Coeff:      0.391D-04-0.123D-03 0.319D-03 0.496D-04-0.191D-03-0.131D-02
 Coeff:      0.418D-03 0.209D-01-0.109D-01-0.228D-01-0.837D-03-0.615D-01
 Coeff:     -0.621D-01-0.640D+00 0.178D+01
 Gap=     0.036 Goal=   None    Shift=    0.000
 RMSDP=6.52D-05 MaxDP=7.11D-04 DE=-5.29D-06 OVMax= 4.59D-03

 Cycle  16  Pass 1  IDiag  1:
 E= -79.3490179540734     Delta-E=       -0.000001299402 Rises=F Damp=F
 DIIS: error= 1.94D-05 at cycle  16 NSaved=  16.
 NSaved=16 IEnMin=16 EnMin= -79.3490179540734     IErMin=16 ErrMin= 1.94D-05
 ErrMax= 1.94D-05 EMaxC= 1.00D-01 BMatC= 3.17D-08 BMatP= 1.88D-07
 IDIUse=1 WtCom= 1.00D+00 WtEn= 0.00D+00
 Coeff-Com: -0.508D-05-0.284D-04-0.955D-05-0.157D-05-0.135D-04-0.871D-04
 Coeff-Com:  0.114D-03 0.104D-02 0.229D-02-0.478D-02-0.154D-02 0.526D-02
 Coeff-Com: -0.493D-01-0.339D+00 0.714D-01 0.131D+01
 Coeff:     -0.508D-05-0.284D-04-0.955D-05-0.157D-05-0.135D-04-0.871D-04
 Coeff:      0.114D-03 0.104D-02 0.229D-02-0.478D-02-0.154D-02 0.526D-02
 Coeff:     -0.493D-01-0.339D+00 0.714D-01 0.131D+01
 Gap=     0.036 Goal=   None    Shift=    0.000
 RMSDP=4.04D-05 MaxDP=4.61D-04 DE=-1.30D-06 OVMax= 2.83D-03

 Cycle  17  Pass 1  IDiag  1:
 E= -79.3490181846743     Delta-E=       -0.000000230601 Rises=F Damp=F
 DIIS: error= 4.12D-06 at cycle  17 NSaved=  17.
 NSaved=17 IEnMin=17 EnMin= -79.3490181846743     IErMin=17 ErrMin= 4.12D-06
 ErrMax= 4.12D-06 EMaxC= 1.00D-01 BMatC= 6.71D-10 BMatP= 3.17D-08
 IDIUse=1 WtCom= 1.00D+00 WtEn= 0.00D+00
 Coeff-Com:  0.967D-05-0.637D-05-0.123D-04-0.503D-06 0.156D-04-0.254D-04
 Coeff-Com:  0.138D-03-0.495D-05 0.753D-03-0.385D-03-0.700D-03 0.261D-02
 Coeff-Com: -0.667D-02-0.573D-01-0.312D-01 0.281D+00 0.811D+00
 Coeff:      0.967D-05-0.637D-05-0.123D-04-0.503D-06 0.156D-04-0.254D-04
 Coeff:      0.138D-03-0.495D-05 0.753D-03-0.385D-03-0.700D-03 0.261D-02
 Coeff:     -0.667D-02-0.573D-01-0.312D-01 0.281D+00 0.811D+00
 Gap=     0.036 Goal=   None    Shift=    0.000
 RMSDP=9.40D-07 MaxDP=2.32D-05 DE=-2.31D-07 OVMax= 4.59D-05

 Cycle  18  Pass 1  IDiag  1:
 E= -79.3490181858049     Delta-E=       -0.000000001131 Rises=F Damp=F
 DIIS: error= 1.88D-06 at cycle  18 NSaved=  18.
 NSaved=18 IEnMin=18 EnMin= -79.3490181858049     IErMin=18 ErrMin= 1.88D-06
 ErrMax= 1.88D-06 EMaxC= 1.00D-01 BMatC= 1.70D-10 BMatP= 6.71D-10
 IDIUse=1 WtCom= 1.00D+00 WtEn= 0.00D+00
 Coeff-Com: -0.649D-06 0.185D-05-0.664D-06 0.780D-07-0.238D-05 0.211D-05
 Coeff-Com: -0.263D-05 0.670D-05-0.116D-03 0.154D-03-0.379D-04 0.832D-03
 Coeff-Com:  0.778D-03 0.980D-02-0.132D-01-0.900D-02 0.112D+00 0.898D+00
 Coeff:     -0.649D-06 0.185D-05-0.664D-06 0.780D-07-0.238D-05 0.211D-05
 Coeff:     -0.263D-05 0.670D-05-0.116D-03 0.154D-03-0.379D-04 0.832D-03
 Coeff:      0.778D-03 0.980D-02-0.132D-01-0.900D-02 0.112D+00 0.898D+00
 Gap=     0.036 Goal=   None    Shift=    0.000
 RMSDP=2.41D-07 MaxDP=5.38D-06 DE=-1.13D-09 OVMax= 1.20D-05

 Cycle  19  Pass 1  IDiag  1:
 E= -79.3490181860715     Delta-E=       -0.000000000267 Rises=F Damp=F
 DIIS: error= 7.29D-07 at cycle  19 NSaved=  19.
 NSaved=19 IEnMin=19 EnMin= -79.3490181860715     IErMin=19 ErrMin= 7.29D-07
 ErrMax= 7.29D-07 EMaxC= 1.00D-01 BMatC= 2.44D-11 BMatP= 1.70D-10
 IDIUse=1 WtCom= 1.00D+00 WtEn= 0.00D+00
 Coeff-Com:  0.292D-06 0.173D-06 0.370D-06-0.390D-07-0.163D-06-0.187D-05
 Coeff-Com:  0.417D-06-0.336D-05 0.382D-04-0.238D-04-0.918D-04-0.672D-04
 Coeff-Com:  0.720D-05 0.482D-02-0.188D-02-0.139D-01-0.435D-01 0.152D-02
 Coeff-Com:  0.105D+01
 Coeff:      0.292D-06 0.173D-06 0.370D-06-0.390D-07-0.163D-06-0.187D-05
 Coeff:      0.417D-06-0.336D-05 0.382D-04-0.238D-04-0.918D-04-0.672D-04
 Coeff:      0.720D-05 0.482D-02-0.188D-02-0.139D-01-0.435D-01 0.152D-02
 Coeff:      0.105D+01
 Gap=     0.036 Goal=   None    Shift=    0.000
 RMSDP=2.59D-07 MaxDP=3.48D-06 DE=-2.67D-10 OVMax= 1.43D-05

 Cycle  20  Pass 1  IDiag  1:
 E= -79.3490181861176     Delta-E=       -0.000000000046 Rises=F Damp=F
 DIIS: error= 1.15D-07 at cycle  20 NSaved=  20.
 NSaved=20 IEnMin=20 EnMin= -79.3490181861176     IErMin=20 ErrMin= 1.15D-07
 ErrMax= 1.15D-07 EMaxC= 1.00D-01 BMatC= 6.38D-13 BMatP= 2.44D-11
 IDIUse=1 WtCom= 1.00D+00 WtEn= 0.00D+00
 Coeff-Com: -0.929D-07 0.462D-07 0.104D-06-0.301D-07 0.221D-06 0.527D-06
 Coeff-Com: -0.966D-07-0.787D-05-0.187D-04 0.468D-04 0.532D-05-0.648D-04
 Coeff-Com: -0.989D-04-0.880D-03 0.104D-02 0.127D-02-0.487D-02-0.540D-01
 Coeff-Com:  0.373D-01 0.102D+01
 Coeff:     -0.929D-07 0.462D-07 0.104D-06-0.301D-07 0.221D-06 0.527D-06
 Coeff:     -0.966D-07-0.787D-05-0.187D-04 0.468D-04 0.532D-05-0.648D-04
 Coeff:     -0.989D-04-0.880D-03 0.104D-02 0.127D-02-0.487D-02-0.540D-01
 Coeff:      0.373D-01 0.102D+01
 Gap=     0.036 Goal=   None    Shift=    0.000
 RMSDP=3.06D-08 MaxDP=3.33D-07 DE=-4.61D-11 OVMax= 1.76D-06

 Cycle  21  Pass 1  IDiag  1:
 E= -79.3490181861187     Delta-E=       -0.000000000001 Rises=F Damp=F
 DIIS: error= 1.06D-08 at cycle  21 NSaved=  20.
 NSaved=20 IEnMin=20 EnMin= -79.3490181861187     IErMin=20 ErrMin= 1.06D-08
 ErrMax= 1.06D-08 EMaxC= 1.00D-01 BMatC= 9.40D-15 BMatP= 6.38D-13
 IDIUse=1 WtCom= 1.00D+00 WtEn= 0.00D+00
 Large coefficients: NSaved= 20 BigCof=    0.00 CofMax=   10.00 Det=-1.48D-15
 Inversion failed.  Reducing to 19 matrices.
 Large coefficients: NSaved= 19 BigCof=    0.00 CofMax=   10.00 Det=-1.48D-15
 Inversion failed.  Reducing to 18 matrices.
 Large coefficients: NSaved= 18 BigCof=    0.00 CofMax=   10.00 Det=-1.51D-15
 Inversion failed.  Reducing to 17 matrices.
 Large coefficients: NSaved= 17 BigCof=    0.00 CofMax=   10.00 Det=-1.71D-15
 Inversion failed.  Reducing to 16 matrices.
 Large coefficients: NSaved= 16 BigCof=    0.00 CofMax=   10.00 Det=-2.25D-15
 Inversion failed.  Reducing to 15 matrices.
 Coeff-Com: -0.315D-07 0.346D-06-0.107D-05 0.105D-05-0.948D-06 0.175D-05
 Coeff-Com: -0.707D-05-0.137D-03 0.205D-03 0.388D-03 0.283D-03-0.461D-02
 Coeff-Com:  0.625D-02-0.633D-01 0.106D+01
 Coeff:     -0.315D-07 0.346D-06-0.107D-05 0.105D-05-0.948D-06 0.175D-05
 Coeff:     -0.707D-05-0.137D-03 0.205D-03 0.388D-03 0.283D-03-0.461D-02
 Coeff:      0.625D-02-0.633D-01 0.106D+01
 Gap=     0.036 Goal=   None    Shift=    0.000
 RMSDP=1.93D-08 MaxDP=2.15D-07 DE=-1.09D-12 OVMax= 1.33D-06

 Cycle  22  Pass 1  IDiag  1:
 E= -79.3490181861185     Delta-E=        0.000000000000 Rises=F Damp=F
 DIIS: error= 2.05D-09 at cycle  22 NSaved=  16.
 NSaved=16 IEnMin=15 EnMin= -79.3490181861187     IErMin=16 ErrMin= 2.05D-09
 ErrMax= 2.05D-09 EMaxC= 1.00D-01 BMatC= 1.99D-16 BMatP= 9.40D-15
 IDIUse=1 WtCom= 1.00D+00 WtEn= 0.00D+00
 Large coefficients: NSaved= 16 BigCof=    0.00 CofMax=   10.00 Det=-3.77D-17
 Inversion failed.  Reducing to 15 matrices.
 Coeff-Com: -0.195D-08 0.332D-06-0.560D-06-0.187D-07 0.394D-06-0.798D-06
 Coeff-Com: -0.135D-05 0.667D-05-0.177D-04-0.521D-04-0.865D-04 0.380D-03
 Coeff-Com: -0.366D-01 0.125D+00 0.911D+00
 Coeff:     -0.195D-08 0.332D-06-0.560D-06-0.187D-07 0.394D-06-0.798D-06
 Coeff:     -0.135D-05 0.667D-05-0.177D-04-0.521D-04-0.865D-04 0.380D-03
 Coeff:     -0.366D-01 0.125D+00 0.911D+00
 Gap=     0.036 Goal=   None    Shift=    0.000
 RMSDP=1.32D-09 MaxDP=1.49D-08 DE= 1.85D-13 OVMax= 9.33D-08

 SCF Done:  E(RB3LYP) =  -79.3490181861     A.U. after   22 cycles
             Convg  =    0.1321D-08             -V/T =  2.0114
 KE= 7.845253341870D+01 PE=-2.424890240709D+02 EE= 5.463615592683D+01
 Leave Link  502 at Wed May 26 19:08:17 2021, MaxMem=   13107200 cpu:      13.3
 (Enter /programs/64bit/g09/g09-gfortran/bin/l601.exe)
 Copying SCF densities to generalized density rwf, IOpCl= 0 IROHF=0.

 **********************************************************************

            Population analysis using the SCF density.

 **********************************************************************

 Alpha  occ. eigenvalues --  -10.27761 -10.22295  -0.75518  -0.71979  -0.45510
 Alpha  occ. eigenvalues --   -0.34626  -0.33323  -0.28183  -0.27153
 Alpha virt. eigenvalues --   -0.23519  -0.01141   0.01350   0.05274   0.06301
 Alpha virt. eigenvalues --    0.07597   0.08922   0.09360   0.11098   0.12711
 Alpha virt. eigenvalues --    0.14740   0.16435   0.19947   0.21861   0.22948
 Alpha virt. eigenvalues --    0.58792   0.61266   0.63604   0.68053   0.69451
 Alpha virt. eigenvalues --    0.78362   0.81824   0.85191   0.87144   0.88818
 Alpha virt. eigenvalues --    0.93339   0.97990   1.03731   1.05991   1.26053
 Alpha virt. eigenvalues --    1.33374   1.34459   1.44331   1.70508   1.74124
 Alpha virt. eigenvalues --    1.81732   1.84078   1.86016   1.90932   2.13012
 Alpha virt. eigenvalues --    2.15998   2.31962   2.32613   2.36221   2.44201
 Alpha virt. eigenvalues --    2.46744   2.56744   2.60942   2.69777   2.72115
 Alpha virt. eigenvalues --    2.98225   2.99487   3.01407   3.27140   3.29401
 Alpha virt. eigenvalues --    3.31949   3.32589   4.24542   4.32603
          Condensed to atoms (all electrons):
              1          2          3          4          5          6
     1  C    5.538554   0.035375   0.336364   0.224062   0.248197  -0.010179
     2  C    0.035375   5.326952   0.000001   0.001778   0.000021   0.371752
     3  H    0.336364   0.000001   0.694373  -0.071180  -0.077759   0.000022
     4  H    0.224062   0.001778  -0.071180   0.869269  -0.075307   0.000050
     5  H    0.248197   0.000021  -0.077759  -0.075307   0.838847   0.000113
     6  H   -0.010179   0.371752   0.000022   0.000050   0.000113   0.564263
     7  H   -0.010716   0.371586   0.000021   0.000040   0.000052  -0.039788
     8  H    0.005806   0.209008  -0.000001  -0.000002  -0.000002  -0.061719
              7          8
     1  C   -0.010716   0.005806
     2  C    0.371586   0.209008
     3  H    0.000021  -0.000001
     4  H    0.000040  -0.000002
     5  H    0.000052  -0.000002
     6  H   -0.039788  -0.061719
     7  H    0.564111  -0.061624
     8  H   -0.061624   0.811694
 Mulliken atomic charges:
              1
     1  C   -0.367463
     2  C   -0.316473
     3  H    0.118160
     4  H    0.051291
     5  H    0.065839
     6  H    0.175487
     7  H    0.176318
     8  H    0.096841
 Sum of Mulliken atomic charges =   0.00000
 Mulliken charges with hydrogens summed into heavy atoms:
              1
     1  C   -0.132173
     2  C    0.132173
 Sum of Mulliken charges with hydrogens summed into heavy atoms =   0.00000
 Electronic spatial extent (au):  <R**2>=            486.2578
 Charge=             -0.0000 electrons
 Dipole moment (field-independent basis, Debye):
    X=             -1.1339    Y=             -1.0494    Z=              2.7242  Tot=              3.1318
 Quadrupole moment (field-independent basis, Debye-Ang):
   XX=            -16.6511   YY=            -18.3521   ZZ=              1.5743
   XY=              0.3677   XZ=             -0.4945   YZ=             -2.0750
 Traceless Quadrupole moment (field-independent basis, Debye-Ang):
   XX=             -5.5082   YY=             -7.2091   ZZ=             12.7173
   XY=              0.3677   XZ=             -0.4945   YZ=             -2.0750
 Octapole moment (field-independent basis, Debye-Ang**2):
  XXX=              3.5706  YYY=              3.6412  ZZZ=             -5.3951  XYY=              1.8956
  XXY=              0.4953  XXZ=            -25.4666  XZZ=             -6.2086  YZZ=            -11.2917
  YYZ=            -27.0651  XYZ=             -2.0317
 Hexadecapole moment (field-independent basis, Debye-Ang**3):
 XXXX=            -35.8409 YYYY=            -35.4960 ZZZZ=           -337.4952 XXXY=              0.3426
 XXXZ=             -0.5779 YYYX=             -0.3214 YYYZ=              2.6345 ZZZX=            -29.9560
 ZZZY=            -51.2278 XXYY=            -11.8772 XXZZ=           -105.5619 YYZZ=           -113.5500
 XXYZ=              1.0657 YYXZ=              2.3217 ZZXY=             -6.8724
 N-N= 3.005131653922D+01 E-N=-2.424890240791D+02  KE= 7.845253341870D+01
 No NMR shielding tensors so no spin-rotation constants.
 Leave Link  601 at Wed May 26 19:08:17 2021, MaxMem=   13107200 cpu:       0.1
 (Enter /programs/64bit/g09/g09-gfortran/bin/l701.exe)
 Compute integral first derivatives.
 ... and contract with generalized density number  0.
 Leave Link  701 at Wed May 26 19:08:17 2021, MaxMem=   13107200 cpu:       0.1
 (Enter /programs/64bit/g09/g09-gfortran/bin/l702.exe)
 L702 exits ... SP integral derivatives will be done elsewhere.
 Leave Link  702 at Wed May 26 19:08:17 2021, MaxMem=   13107200 cpu:       0.0
 (Enter /programs/64bit/g09/g09-gfortran/bin/l703.exe)
 Compute integral first derivatives, UseDBF=F ICtDFT=           0.
 Integral derivatives from FoFDir, PRISM(SPDF).
 Calling FoFJK, ICntrl=      2127 FMM=F ISym2X=0 I1Cent= 0 IOpClX= 0 NMat=1 NMatS=1 NMatT=0.
 FoFCou: FMM=F IPFlag=           0 FMFlag=      100000 FMFlg1=         800
         NFxFlg=           0 DoJE=F BraDBF=F KetDBF=F FulRan=T
         Omega=  0.000000  0.000000  1.000000  0.000000  0.000000 ICntrl=    2127 IOpCl=  0
         NMat0=    1 NMatS0=    1 NMatT0=    0 NMatD0=    1 NMtDS0=    0 NMtDT0=    0
         I1Cent=           0 NGrid=           0.
 Symmetry not used in FoFCou.
 Leave Link  703 at Wed May 26 19:08:19 2021, MaxMem=   13107200 cpu:       1.1
 (Enter /programs/64bit/g09/g09-gfortran/bin/l716.exe)
 Dipole        =-4.46100037D-01-4.12869998D-01 1.07179028D+00
 -------------------------------------------------------------------
 Center     Atomic                   Forces (Hartrees/Bohr)
 Number     Number              X              Y              Z
 -------------------------------------------------------------------
      1        6          -0.102201380   -0.055823513   -0.103392176
      2        6          -0.030690607   -0.054281557    0.088864467
      3        1           0.078596533    0.040544361    0.000795335
      4        1           0.044357785   -0.042621757    0.055501419
      5        1          -0.019525834    0.061206101    0.060905078
      6        1          -0.017659095    0.012259049   -0.051644256
      7        1           0.019190026   -0.009653471   -0.051413302
      8        1           0.027932573    0.048370787    0.000383436
 -------------------------------------------------------------------
 Cartesian Forces:  Max     0.103392176 RMS     0.053195459
 -----------------------------------------------------------------------------------------------
                       Internal Coordinate Forces (Hartree/Bohr or radian)
  Cent   Atom   N1       Length/X         N2         Alpha/Y        N3         Beta/Z          J
 -----------------------------------------------------------------------------------------------
      1  C 
      2  C        1  -0.013810(     1)
      3  H        1   0.000589(     2)      2  -0.168170(     8)
      4  H        1  -0.005128(     3)      2  -0.128214(     9)      3  -0.125813(    14)     0
      5  H        1  -0.000347(     4)      2  -0.141245(    10)      3   0.126410(    15)     0
      6  H        2  -0.000113(     5)      1  -0.114207(    11)      3  -0.000940(    16)     0
      7  H        2   0.000242(     6)      1  -0.113871(    12)      6   0.023315(    17)     0
      8  H        2   0.001366(     7)      1  -0.123236(    13)      6  -0.000000(    18)     0
 -----------------------------------------------------------------------------------------------
 Internal  Forces:  Max     0.168169993 RMS     0.087698782
 Force constants in Cartesian coordinates: 
                1             2             3             4             5 
      1  0.842469D+00
      2 -0.714738D+00  0.963253D+01
      3  0.132953D+00  0.758901D-01  0.495885D+00
      4 -0.156351D+01  0.320650D+01  0.154491D-01  0.661795D+01
      5  0.101589D+01 -0.408485D+01  0.876394D-02 -0.418156D+01  0.364279D+01
      6 -0.537808D-02 -0.932878D-02 -0.106011D-01 -0.712996D-01 -0.123888D+00
      7 -0.928553D-01 -0.652216D-03 -0.445449D-01  0.137777D-01 -0.135284D-02
      8  0.455524D+00 -0.675215D+01 -0.268100D-01 -0.179177D+01  0.262328D+01
      9  0.371200D-02 -0.114907D-04 -0.304334D+00  0.242735D-03 -0.238344D-04
     10 -0.871406D-01 -0.103823D+00 -0.402639D-01 -0.243541D-01  0.162258D-01
     11 -0.789004D-01 -0.165728D+00 -0.473352D-01  0.162175D-01 -0.562661D-02
     12 -0.455250D-01 -0.745261D-01 -0.889906D-01 -0.514071D-02 -0.889972D-02
     13 -0.245275D+00  0.472249D-02 -0.635931D-01  0.420349D-02 -0.325823D-03
     14 -0.291353D-01 -0.337046D-01 -0.105089D-01  0.325202D-01 -0.154269D-01
     15 -0.911399D-01 -0.135258D-02 -0.919598D-01 -0.105511D-01  0.159606D-03
     16  0.380223D-02 -0.110090D-05  0.000000D+00 -0.290348D+00  0.677613D-02
     17 -0.528576D-03 -0.364519D-01  0.000000D+00 -0.213487D-01 -0.533008D-01
     18  0.110447D-01 -0.312050D-05  0.000000D+00  0.111948D+00  0.196828D-01
     19  0.405723D-02  0.345288D-01  0.000000D+00 -0.114004D+00  0.722397D-01
     20  0.144598D-03  0.237397D-01  0.000000D+00  0.109036D+00 -0.245486D+00
     21 -0.552903D-02  0.957028D-02  0.000000D+00 -0.390302D-01  0.107009D+00
     22  0.113846D+01 -0.242653D+01  0.000000D+00 -0.464371D+01  0.307211D+01
     23 -0.648255D+00  0.141661D+01  0.000000D+00  0.263041D+01 -0.186138D+01
     24 -0.137624D-03 -0.238372D-03  0.000000D+00 -0.161830D-02 -0.280321D-02
                6             7             8             9            10 
      6  0.515782D+00
      7  0.000000D+00  0.862964D-01
      8  0.000000D+00  0.105598D-01  0.489586D+01
      9  0.000000D+00 -0.382756D-02  0.186043D-03  0.303482D+00
     10  0.000000D+00  0.390782D-02 -0.944219D-02  0.688479D-04  0.882324D-01
     11  0.000000D+00 -0.899113D-02 -0.593667D-02 -0.158406D-03  0.826947D-01
     12  0.000000D+00  0.160311D-01  0.271018D-01  0.282435D-03  0.349943D-01
     13  0.000000D+00 -0.111267D-01  0.333277D-03 -0.196029D-03 -0.132893D-02
     14  0.000000D+00  0.436353D-03  0.961077D-02  0.768767D-05  0.262869D-01
     15  0.000000D+00  0.323414D-01 -0.477891D-03  0.569791D-03  0.520078D-02
     16  0.731559D-01  0.000000D+00  0.000000D+00  0.000000D+00  0.000000D+00
     17  0.292744D-01  0.000000D+00  0.308435D-01  0.000000D+00  0.477937D-03
     18 -0.116383D+00  0.000000D+00  0.000000D+00  0.000000D+00  0.000000D+00
     19 -0.113198D-01  0.000000D+00 -0.267302D-01  0.000000D+00 -0.414199D-03
     20  0.781960D-01  0.000000D+00 -0.154328D-01  0.000000D+00 -0.239140D-03
     21 -0.116577D+00  0.000000D+00  0.000000D+00  0.000000D+00  0.000000D+00
     22  0.148415D-01  0.000000D+00  0.136153D+01  0.000000D+00  0.210976D-01
     23  0.257466D-01  0.000000D+00 -0.786079D+00  0.000000D+00 -0.121807D-01
     24 -0.272222D+00  0.000000D+00  0.000000D+00  0.000000D+00  0.000000D+00
               11            12            13            14            15 
     11  0.187788D+00
     12  0.510475D-01  0.873944D-01
     13  0.918179D-03 -0.359622D-03  0.253952D+00
     14 -0.173902D-01  0.527643D-02 -0.589361D-02  0.429302D-01
     15 -0.355393D-02  0.131369D-02  0.641488D-01  0.522479D-02  0.900763D-01
     16  0.000000D+00  0.000000D+00  0.000000D+00  0.000000D+00  0.000000D+00
     17 -0.275874D-03  0.000000D+00 -0.982464D-05 -0.559534D-03  0.000000D+00
     18  0.000000D+00  0.000000D+00  0.000000D+00  0.000000D+00  0.000000D+00
     19  0.239083D-03  0.000000D+00  0.851442D-05  0.484914D-03  0.000000D+00
     20  0.138036D-03  0.000000D+00  0.491583D-05  0.279967D-03  0.000000D+00
     21  0.000000D+00  0.000000D+00  0.000000D+00  0.000000D+00  0.000000D+00
     22 -0.121779D-01  0.000000D+00 -0.433689D-03 -0.246995D-01  0.000000D+00
     23  0.703093D-02  0.000000D+00  0.250391D-03  0.142603D-01  0.000000D+00
     24  0.000000D+00  0.000000D+00  0.000000D+00  0.000000D+00  0.000000D+00
               16            17            18            19            20 
     16  0.302724D+00
     17 -0.493038D-02  0.401823D-01
     18 -0.759962D-01 -0.143212D-01  0.108132D+00
     19 -0.488618D-02  0.269376D-01 -0.141935D-01  0.110329D+00
     20 -0.173217D-02  0.966628D-02 -0.503163D-02 -0.116461D+00  0.233403D+00
     21  0.273925D-02 -0.148077D-01  0.795703D-02  0.256899D-01 -0.731791D-01
     22 -0.112927D-01 -0.598015D-03 -0.328031D-01  0.490984D-02  0.924662D-02
     23 -0.112502D-03  0.989592D-02 -0.326816D-03  0.876077D-02 -0.630764D-02
     24  0.101039D-03 -0.145498D-03  0.293500D-03 -0.176649D-03  0.147635D-04
               21            22            23            24 
     21  0.108326D+00
     22  0.161301D-01  0.349097D+01
     23 -0.285921D-01 -0.197888D+01  0.120597D+01
     24  0.293708D-03  0.183154D-02  0.317231D-02  0.271634D+00
 Force constants in internal coordinates: 
                1             2             3             4             5 
      1  0.106011D-01
      2  0.000000D+00  0.303549D+00
      3  0.000000D+00  0.000000D+00  0.256969D+00
      4  0.000000D+00  0.000000D+00  0.000000D+00  0.276140D+00
      5  0.000000D+00  0.000000D+00  0.000000D+00  0.000000D+00  0.328887D+00
      6  0.000000D+00  0.000000D+00  0.000000D+00  0.000000D+00  0.000000D+00
      7  0.000000D+00  0.000000D+00  0.000000D+00  0.000000D+00  0.000000D+00
      8  0.000000D+00  0.000000D+00  0.000000D+00  0.000000D+00  0.000000D+00
      9  0.000000D+00  0.000000D+00  0.000000D+00  0.000000D+00  0.000000D+00
     10  0.000000D+00  0.000000D+00  0.000000D+00  0.000000D+00  0.000000D+00
     11  0.000000D+00  0.000000D+00  0.000000D+00  0.000000D+00  0.000000D+00
     12  0.000000D+00  0.000000D+00  0.000000D+00  0.000000D+00  0.000000D+00
     13  0.000000D+00  0.000000D+00  0.000000D+00  0.000000D+00  0.000000D+00
     14  0.000000D+00  0.000000D+00  0.000000D+00  0.000000D+00  0.000000D+00
     15  0.000000D+00  0.000000D+00  0.000000D+00  0.000000D+00  0.000000D+00
     16  0.000000D+00  0.000000D+00  0.000000D+00  0.000000D+00  0.000000D+00
     17  0.000000D+00  0.000000D+00  0.000000D+00  0.000000D+00  0.000000D+00
     18  0.000000D+00  0.000000D+00  0.000000D+00  0.000000D+00  0.000000D+00
                6             7             8             9            10 
      6  0.329731D+00
      7  0.000000D+00  0.271699D+00
      8  0.000000D+00  0.000000D+00  0.394751D+00
      9  0.000000D+00  0.000000D+00  0.818354D-01  0.326339D+00
     10  0.000000D+00  0.000000D+00  0.160801D+00  0.728107D-02  0.328338D+00
     11  0.000000D+00  0.000000D+00  0.000000D+00  0.000000D+00  0.000000D+00
     12  0.000000D+00  0.000000D+00  0.000000D+00  0.000000D+00  0.000000D+00
     13  0.000000D+00  0.000000D+00  0.000000D+00  0.000000D+00  0.000000D+00
     14  0.000000D+00  0.000000D+00  0.355190D-01  0.240621D-01  0.307413D-01
     15  0.000000D+00  0.000000D+00 -0.107107D-02 -0.261111D-01 -0.306483D-01
     16  0.000000D+00  0.000000D+00  0.000000D+00  0.000000D+00  0.000000D+00
     17  0.000000D+00  0.000000D+00  0.000000D+00  0.000000D+00  0.000000D+00
     18  0.000000D+00  0.000000D+00  0.000000D+00  0.000000D+00  0.000000D+00
               11            12            13            14            15 
     11  0.358902D+00
     12  0.389407D-01  0.358902D+00
     13  0.814979D-01  0.814976D-01  0.308783D+00
     14  0.000000D+00  0.000000D+00  0.000000D+00  0.184183D+00
     15  0.000000D+00  0.000000D+00  0.000000D+00 -0.137521D+00  0.184635D+00
     16  0.342293D-03 -0.342459D-03  0.000000D+00  0.690000D-02  0.690000D-02
     17 -0.647887D-01 -0.627049D-01 -0.361203D-01  0.230000D-02  0.230000D-02
     18  0.242621D-02 -0.242622D-02  0.000000D+00  0.230000D-02  0.230000D-02
               16            17            18 
     16  0.995678D-01
     17  0.467131D-01  0.157295D+00
     18  0.614157D-02 -0.419761D-03  0.698109D-02
 Leave Link  716 at Wed May 26 19:08:19 2021, MaxMem=   13107200 cpu:       0.0
 (Enter /programs/64bit/g09/g09-gfortran/bin/l103.exe)

 GradGradGradGradGradGradGradGradGradGradGradGradGradGradGradGradGradGrad
 Berny optimization.
 Search for a local minimum.
 Step number   1 out of a maximum of    2
 All quantities printed in internal units (Hartrees-Bohrs-Radians)
 Second derivative matrix not updated -- first step.
 The second derivative matrix:
                          d1        a1        t1        d2        a2
           d1           0.01060
           a1          -0.00000   0.39475
           t1          -0.00000   0.03552   0.18418
           d2           0.00000  -0.00000  -0.00000   0.30355
           a2          -0.00000   0.08184   0.02406  -0.00000   0.32634
           t2           0.00000  -0.00107  -0.13752   0.00000  -0.02611
           d3           0.00000  -0.00000  -0.00000  -0.00000  -0.00000
           d4          -0.00000   0.00000  -0.00000   0.00000  -0.00000
           a3          -0.00000   0.16080   0.03074  -0.00000   0.00728
           d5          -0.00000  -0.00000   0.00000  -0.00000  -0.00000
           a4          -0.00000  -0.00000  -0.00000   0.00000   0.00000
           t3          -0.00000  -0.00000   0.00690   0.00000  -0.00000
           d6          -0.00000  -0.00000  -0.00000   0.00000  -0.00000
           a5          -0.00000   0.00000   0.00000  -0.00000  -0.00000
           t4           0.00000   0.00000   0.00230  -0.00000  -0.00000
           d7           0.00000  -0.00000   0.00000   0.00000  -0.00000
           a6          -0.00000  -0.00000   0.00000  -0.00000   0.00000
           t5           0.00000  -0.00000   0.00230   0.00000  -0.00000
                          t2        d3        d4        a3        d5
           t2           0.18464
           d3           0.00000   0.25697
           d4           0.00000  -0.00000   0.27614
           a3          -0.03065  -0.00000   0.00000   0.32834
           d5           0.00000  -0.00000   0.00000  -0.00000   0.32889
           a4          -0.00000  -0.00000  -0.00000   0.00000  -0.00000
           t3           0.00690  -0.00000   0.00000  -0.00000  -0.00000
           d6          -0.00000   0.00000  -0.00000   0.00000  -0.00000
           a5           0.00000   0.00000   0.00000  -0.00000  -0.00000
           t4           0.00230   0.00000   0.00000   0.00000   0.00000
           d7           0.00000   0.00000   0.00000  -0.00000   0.00000
           a6          -0.00000  -0.00000  -0.00000   0.00000  -0.00000
           t5           0.00230   0.00000   0.00000   0.00000  -0.00000
                          a4        t3        d6        a5        t4
           a4           0.35890
           t3           0.00034   0.09957
           d6          -0.00000  -0.00000   0.32973
           a5           0.03894  -0.00034  -0.00000   0.35890
           t4          -0.06479   0.04671  -0.00000  -0.06270   0.15729
           d7           0.00000  -0.00000  -0.00000   0.00000  -0.00000
           a6           0.08150   0.00000  -0.00000   0.08150  -0.03612
           t5           0.00243   0.00614   0.00000  -0.00243  -0.00042
                          d7        a6        t5
           d7           0.27170
           a6           0.00000   0.30878
           t5           0.00000   0.00000   0.00698
     Eigenvalues --- 1000.000001000.000001000.000001000.000001000.00000
     Eigenvalues --- 1000.000001000.000001000.000001000.000001000.00000
     Eigenvalues --- 1000.000001000.000001000.000001000.000001000.00000
     Eigenvalues --- 1000.000001000.000001000.00000
 Angle between quadratic step and forces=  90.00 degrees.
 Linear search not attempted -- first point.
 Variable       Old X    -DE/DX   Delta X   Delta X   Delta X     New X
                                 (Linear)    (Quad)   (Total)
    d1        6.55389  -0.01381   0.00000   0.00000   0.00000   6.55389
    a1        3.12398  -0.16817   0.00000   0.00000   0.00000   3.12398
    t1        2.09430  -0.12581   0.00000   0.00000   0.00000   2.09430
    d2        2.13961   0.00059   0.00000   0.00000   0.00000   2.13961
    a2        1.91978  -0.12821   0.00000   0.00000   0.00000   1.91978
    t2       -3.12404   0.12641   0.00000   0.00000   0.00000  -3.12404
    d3        2.24169  -0.00513   0.00000   0.00000   0.00000   2.24169
    d4        2.19690  -0.00035   0.00000   0.00000   0.00000   2.19690
    a3        1.90231  -0.14124   0.00000   0.00000   0.00000   1.90231
    d5        2.09247  -0.00011   0.00000   0.00000   0.00000   2.09247
    a4        1.90235  -0.11421   0.00000   0.00000   0.00000   1.90235
    t3        3.14159  -0.00094   0.00000   0.00000   0.00000   3.14159
    d6        2.09099   0.00024   0.00000   0.00000   0.00000   2.09099
    a5        1.90234  -0.11387   0.00000   0.00000   0.00000   1.90234
    t4        2.09440   0.02331   0.00000   0.00000   0.00000   2.09440
    d7        2.20690   0.00137   0.00000   0.00000   0.00000   2.20690
    a6        3.12400  -0.12324   0.00000   0.00000   0.00000   3.12400
    t5       -2.09440  -0.00000   0.00000   0.00000   0.00000  -2.09440
         Item               Value     Threshold  Converged?
 Maximum Force            0.000000     0.000450     YES
 RMS     Force            0.000000     0.000300     YES
 Maximum Displacement     0.000000     0.001800     YES
 RMS     Displacement     0.000000     0.001200     YES
 Predicted change in Energy=-0.000000D+00
 Optimization completed.
    -- Stationary point found.
                       ----------------------------
                       !   Optimized Parameters   !
                       ! (Angstroms and Degrees)  !
 ----------------------                            ----------------------
 !      Name          Value   Derivative information (Atomic Units)     !
 ------------------------------------------------------------------------
 !       d1          3.4682   -DE/DX =   -0.0138                        !
 !       a1        178.9907   -DE/DX =   -0.1682                        !
 !       t1        119.9943   -DE/DX =   -0.1258                        !
 !       d2          1.1322   -DE/DX =    0.0006                        !
 !       a2        109.9956   -DE/DX =   -0.1282                        !
 !       t2       -178.9941   -DE/DX =    0.1264                        !
 !       d3          1.1862   -DE/DX =   -0.0051                        !
 !       d4          1.1625   -DE/DX =   -0.0003                        !
 !       a3        108.9945   -DE/DX =   -0.1412                        !
 !       d5          1.1073   -DE/DX =   -0.0001                        !
 !       a4        108.9964   -DE/DX =   -0.1142                        !
 !       t3        180.0      -DE/DX =   -0.0009                        !
 !       d6          1.1065   -DE/DX =    0.0002                        !
 !       a5        108.9963   -DE/DX =   -0.1139                        !
 !       t4        120.0002   -DE/DX =    0.0233                        !
 !       d7          1.1678   -DE/DX =    0.0014                        !
 !       a6        178.9922   -DE/DX =   -0.1232                        !
 !       t5       -120.0      -DE/DX =    0.0                           !
 ------------------------------------------------------------------------
 GradGradGradGradGradGradGradGradGradGradGradGradGradGradGradGradGradGrad

 Leave Link  103 at Wed May 26 19:08:19 2021, MaxMem=   13107200 cpu:       0.0
 (Enter /programs/64bit/g09/g09-gfortran/bin/l9999.exe)
 1\1\GINC-MOLMOD\Force\RB3LYP\6-31+G(d,p)\C2H6\OSPITE\26-May-2021\1\\#p
  b3lyp/6-31+g(d,p) force nosym\\c2h6 molecule\\0,1\C\C,1,d1\H,1,d2,2,a
 1\H,1,d3,2,a2,3,t1,0\H,1,d4,2,a3,3,t2,0\H,2,d5,1,a4,3,t3,0\H,2,d6,1,a5
 ,6,t4,0\H,2,d7,1,a6,6,t5,0\\d1=3.46816867\a1=178.99066772\t1=119.99430
 15\d2=1.13223407\a2=109.99556861\t2=-178.99406937\d3=1.18624911\d4=1.1
 6254987\a3=108.99454061\d5=1.10728972\a4=108.99639066\t3=179.99995811\
 d6=1.10650275\a5=108.99629292\t4=120.00019024\d7=1.1678411\a6=178.9922
 0885\t5=-119.99999825\\Version=EM64L-G09RevA.02\HF=-79.3490182\RMSD=1.
 321e-09\RMSF=5.320e-02\Dipole=-0.4461,-0.41287,1.0717903\Quadrupole=-4
 .0951954,-5.3597954,9.4549908,0.2734027,-0.3676499,-1.5426878\PG=C01 [
 X(C2H6)]\\@


 MODELS ARE TO BE USED, NOT BELIEVED.

    -- PARAPHRASED BY H. THIEL IN "PRINCIPLES OF ECONOMETRICS"
 Job cpu time:  0 days  0 hours  0 minutes 15.6 seconds.
 File lengths (MBytes):  RWF=      5 Int=      0 D2E=      0 Chk=      1 Scr=      1
 Normal termination of Gaussian 09 at Wed May 26 19:08:19 2021.
