 Entering Gaussian System, Link 0=g09
 Input=c2h6_028.com
 Output=c2h6_028.log
 Initial command:
 /programs/64bit/g09/g09-gfortran/bin/l1.exe /data/scratch/Gau-6558.inp -scrdir=/data/scratch/
 Entering Link 1 = /programs/64bit/g09/g09-gfortran/bin/l1.exe PID=      6559.
  
 Copyright (c) 1988,1990,1992,1993,1995,1998,2003,2009, Gaussian, Inc.
                  All Rights Reserved.
  
 This is part of the Gaussian(R) 09 program.  It is based on
 the Gaussian(R) 03 system (copyright 2003, Gaussian, Inc.),
 the Gaussian(R) 98 system (copyright 1998, Gaussian, Inc.),
 the Gaussian(R) 94 system (copyright 1995, Gaussian, Inc.),
 the Gaussian 92(TM) system (copyright 1992, Gaussian, Inc.),
 the Gaussian 90(TM) system (copyright 1990, Gaussian, Inc.),
 the Gaussian 88(TM) system (copyright 1988, Gaussian, Inc.),
 the Gaussian 86(TM) system (copyright 1986, Carnegie Mellon
 University), and the Gaussian 82(TM) system (copyright 1983,
 Carnegie Mellon University). Gaussian is a federally registered
 trademark of Gaussian, Inc.
  
 This software contains proprietary and confidential information,
 including trade secrets, belonging to Gaussian, Inc.
  
 This software is provided under written license and may be
 used, copied, transmitted, or stored only in accord with that
 written license.
  
 The following legend is applicable only to US Government
 contracts under FAR:
  
                    RESTRICTED RIGHTS LEGEND
  
 Use, reproduction and disclosure by the US Government is
 subject to restrictions as set forth in subparagraphs (a)
 and (c) of the Commercial Computer Software - Restricted
 Rights clause in FAR 52.227-19.
  
 Gaussian, Inc.
 340 Quinnipiac St., Bldg. 40, Wallingford CT 06492
  
  
 ---------------------------------------------------------------
 Warning -- This program may not be used in any manner that
 competes with the business of Gaussian, Inc. or will provide
 assistance to any competitor of Gaussian, Inc.  The licensee
 of this program is prohibited from giving any competitor of
 Gaussian, Inc. access to this program.  By using this program,
 the user acknowledges that Gaussian, Inc. is engaged in the
 business of creating and licensing software in the field of
 computational chemistry and represents and warrants to the
 licensee that it is not a competitor of Gaussian, Inc. and that
 it will not use this program in any manner prohibited above.
 ---------------------------------------------------------------
  

 Cite this work as:
 Gaussian 09, Revision A.02,
 M. J. Frisch, G. W. Trucks, H. B. Schlegel, G. E. Scuseria, 
 M. A. Robb, J. R. Cheeseman, G. Scalmani, V. Barone, B. Mennucci, 
 G. A. Petersson, H. Nakatsuji, M. Caricato, X. Li, H. P. Hratchian, 
 A. F. Izmaylov, J. Bloino, G. Zheng, J. L. Sonnenberg, M. Hada, 
 M. Ehara, K. Toyota, R. Fukuda, J. Hasegawa, M. Ishida, T. Nakajima, 
 Y. Honda, O. Kitao, H. Nakai, T. Vreven, J. A. Montgomery, Jr., 
 J. E. Peralta, F. Ogliaro, M. Bearpark, J. J. Heyd, E. Brothers, 
 K. N. Kudin, V. N. Staroverov, R. Kobayashi, J. Normand, 
 K. Raghavachari, A. Rendell, J. C. Burant, S. S. Iyengar, J. Tomasi, 
 M. Cossi, N. Rega, J. M. Millam, M. Klene, J. E. Knox, J. B. Cross, 
 V. Bakken, C. Adamo, J. Jaramillo, R. Gomperts, R. E. Stratmann, 
 O. Yazyev, A. J. Austin, R. Cammi, C. Pomelli, J. W. Ochterski, 
 R. L. Martin, K. Morokuma, V. G. Zakrzewski, G. A. Voth, 
 P. Salvador, J. J. Dannenberg, S. Dapprich, A. D. Daniels, 
 O. Farkas, J. B. Foresman, J. V. Ortiz, J. Cioslowski, 
 and D. J. Fox, Gaussian, Inc., Wallingford CT, 2009.
 
 ******************************************
 Gaussian 09:  EM64L-G09RevA.02 11-Jun-2009
                26-May-2021 
 ******************************************
 %chk=c2h6_028.chk
 %mem=100MB
 --------------------------------
 #p b3lyp/6-31+g(d,p) force nosym
 --------------------------------
 1/10=7,30=1,38=1/1,3;
 2/12=2,15=1,17=6,18=5,40=1/2;
 3/5=1,6=6,7=111,11=2,16=1,25=1,30=1,71=1,74=-5/1,2,3;
 4//1;
 5/5=2,38=5/2;
 6/7=2,8=2,9=2,10=2,28=1/1;
 7/29=1,30=1/1,2,3,16;
 1/10=7,30=1/3;
 99//99;
 Leave Link    1 at Wed May 26 19:12:27 2021, MaxMem=   13107200 cpu:       0.0
 (Enter /programs/64bit/g09/g09-gfortran/bin/l101.exe)
 -------------
 c2h6 molecule
 -------------
 Symbolic Z-matrix:
 Charge =  0 Multiplicity = 1
 C1
 C2                   1    d1
 H3                   1    d2       2    a1
 H4                   1    d3       2    a2       3    t1       0
 H5                   1    d4       2    a3       3    t2       0
 H6                   2    d5       1    a4       3    t3       0
 H7                   2    d6       1    a5       6    t4       0
 H8                   2    d7       1    a6       6    t5       0
       Variables:
       Constants:
  d1                    1.73445                  
  a1                  150.21228                  
  t1                   98.84102                  
  d2                    1.09341                  
  a2                   88.39559                  
  t2                 -157.71399                  
  d3                    1.09929                  
  d4                    1.08535                  
  a3                   86.1971                   
  d5                    1.08759                  
  a4                   90.49654                  
  t3                  179.83048                  
  d6                    1.09241                  
  a5                   90.68553                  
  t4                  122.37332                  
  d7                    1.10218                  
  a6                  156.1868                   
  t5                 -120.00048                  
 
 NAtoms=      8 NQM=      8 NQMF=      0 NMic=      0 NMicF=      0 NTot=      8.
                    Isotopes and Nuclear Properties:
 (Nuclear quadrupole moments (NQMom) in fm**2, nuclear magnetic moments (NMagM)
  in nuclear magnetons)

  Atom         1           2           3           4           5           6           7           8
 IAtWgt=          12          12           1           1           1           1           1           1
 AtmWgt=  12.0000000  12.0000000   1.0078250   1.0078250   1.0078250   1.0078250   1.0078250   1.0078250
 NucSpn=           0           0           1           1           1           1           1           1
 AtZEff=   0.0000000   0.0000000   0.0000000   0.0000000   0.0000000   0.0000000   0.0000000   0.0000000
 NQMom=    0.0000000   0.0000000   0.0000000   0.0000000   0.0000000   0.0000000   0.0000000   0.0000000
 NMagM=    0.0000000   0.0000000   2.7928460   2.7928460   2.7928460   2.7928460   2.7928460   2.7928460
 Leave Link  101 at Wed May 26 19:12:27 2021, MaxMem=   13107200 cpu:       0.0
 (Enter /programs/64bit/g09/g09-gfortran/bin/l103.exe)

 GradGradGradGradGradGradGradGradGradGradGradGradGradGradGradGradGradGrad
 Berny optimization.
 Initialization pass.
                       ----------------------------
                       !    Initial Parameters    !
                       ! (Angstroms and Degrees)  !
 ----------------------                            ----------------------
 !      Name          Value   Derivative information (Atomic Units)     !
 ------------------------------------------------------------------------
 !       d1          1.7344   Frozen                                    !
 !       a1        150.2123   Frozen                                    !
 !       t1         98.841    Frozen                                    !
 !       d2          1.0934   Frozen                                    !
 !       a2         88.3956   Frozen                                    !
 !       t2       -157.714    Frozen                                    !
 !       d3          1.0993   Frozen                                    !
 !       d4          1.0854   Frozen                                    !
 !       a3         86.1971   Frozen                                    !
 !       d5          1.0876   Frozen                                    !
 !       a4         90.4965   Frozen                                    !
 !       t3        179.8305   Frozen                                    !
 !       d6          1.0924   Frozen                                    !
 !       a5         90.6855   Frozen                                    !
 !       t4        122.3733   Frozen                                    !
 !       d7          1.1022   Frozen                                    !
 !       a6        156.1868   Frozen                                    !
 !       t5       -120.0005   Frozen                                    !
 ------------------------------------------------------------------------
 Trust Radius=3.00D-01 FncErr=1.00D-07 GrdErr=1.00D-07
 Number of steps in this run=   2 maximum allowed number of steps=   2.
 GradGradGradGradGradGradGradGradGradGradGradGradGradGradGradGradGradGrad

 Leave Link  103 at Wed May 26 19:12:27 2021, MaxMem=   13107200 cpu:       0.0
 (Enter /programs/64bit/g09/g09-gfortran/bin/l202.exe)
                          Input orientation:                          
 ---------------------------------------------------------------------
 Center     Atomic      Atomic             Coordinates (Angstroms)
 Number     Number       Type             X           Y           Z
 ---------------------------------------------------------------------
      1          6           0        0.000000    0.000000    0.000000
      2          6           0        0.000000    0.000000    1.734446
      3          1           0        0.543191    0.000000   -0.948936
      4          1           0       -0.168888   -1.085807    0.030779
      5          1           0       -1.002067    0.410692    0.071985
      6          1           0       -1.087541    0.003218    1.743871
      7          1           0        0.582140   -0.924287    1.747516
      8          1           0        0.223648    0.384729    2.742793
 ---------------------------------------------------------------------
                    Distance matrix (angstroms):
                    1          2          3          4          5
     1  C    0.000000
     2  C    1.734446   0.000000
     3  H    1.093406   2.737809   0.000000
     4  H    1.099294   2.027309   1.626614   0.000000
     5  H    1.085351   1.984082   1.897042   1.713299   0.000000
     6  H    2.055199   1.087587   3.148096   2.228134   1.722946
     7  H    2.060826   1.092412   2.850733   1.880776   2.664448
     8  H    2.778659   1.102179   3.725451   3.109916   2.938752
                    6          7          8
     6  H    0.000000
     7  H    1.910004   0.000000
     8  H    1.691926   1.683038   0.000000
 Symmetry turned off by external request.
 Stoichiometry    C2H6
 Framework group  C1[X(C2H6)]
 Deg. of freedom    18
 Full point group                 C1      NOp   1
 Rotational constants (GHZ):     97.1388494     17.0471027     16.1931972
 Leave Link  202 at Wed May 26 19:12:27 2021, MaxMem=   13107200 cpu:       0.0
 (Enter /programs/64bit/g09/g09-gfortran/bin/l301.exe)
 Standard basis: 6-31+G(d,p) (6D, 7F)
 Ernie: Thresh=  0.10000D-02 Tol=  0.10000D-05 Strict=F.
 Integral buffers will be    131072 words long.
 Raffenetti 2 integral format.
 Two-electron integral symmetry is turned off.
    68 basis functions,   106 primitive gaussians,    68 cartesian basis functions
     9 alpha electrons        9 beta electrons
       nuclear repulsion energy        40.6499122462 Hartrees.
 IExCor=  402 DFT=T Ex+Corr=B3LYP ExCW=0 ScaHFX=  0.200000
 ScaDFX=  0.800000  0.720000  1.000000  0.810000 ScalE2=  1.000000  1.000000
 IRadAn=      0 IRanWt=     -1 IRanGd=            0 ICorTp=0
 NAtoms=    8 NActive=    8 NUniq=    8 SFac= 7.50D-01 NAtFMM=   80 NAOKFM=F Big=F
 Leave Link  301 at Wed May 26 19:12:27 2021, MaxMem=   13107200 cpu:       0.0
 (Enter /programs/64bit/g09/g09-gfortran/bin/l302.exe)
 NPDir=0 NMtPBC=     1 NCelOv=     1 NCel=       1 NClECP=     1 NCelD=      1
         NCelK=      1 NCelE2=     1 NClLst=     1 CellRange=     0.0.
 One-electron integrals computed using PRISM.
 NBasis=    68 RedAO= T  NBF=    68
 NBsUse=    68 1.00D-06 NBFU=    68
 Precomputing XC quadrature grid using
 IXCGrd= 2 IRadAn=           0 IRanWt=          -1 IRanGd=           0 AccXCQ= 1.00D-10.
 NRdTot=     510 NPtTot=       65100 NUsed=       68787 NTot=       68819
 NSgBfM=    68    68    68    68    68 NAtAll=     8     8.
 Leave Link  302 at Wed May 26 19:12:28 2021, MaxMem=   13107200 cpu:       0.1
 (Enter /programs/64bit/g09/g09-gfortran/bin/l303.exe)
 DipDrv:  MaxL=1.
 Leave Link  303 at Wed May 26 19:12:28 2021, MaxMem=   13107200 cpu:       0.0
 (Enter /programs/64bit/g09/g09-gfortran/bin/l401.exe)
 Harris functional with IExCor=  402 diagonalized for initial guess.
 ExpMin= 4.38D-02 ExpMax= 3.05D+03 ExpMxC= 4.57D+02 IAcc=2 IRadAn=         0 AccDes= 0.00D+00
 HarFok:  IExCor=  402 AccDes= 0.00D+00 IRadAn=         0 IDoV= 1
 ScaDFX=  1.000000  1.000000  1.000000  1.000000
 FoFCou: FMM=F IPFlag=           0 FMFlag=      100000 FMFlg1=           0
         NFxFlg=           0 DoJE=T BraDBF=F KetDBF=T FulRan=T
         Omega=  0.000000  0.000000  1.000000  0.000000  0.000000 ICntrl=     500 IOpCl=  0
         NMat0=    1 NMatS0=    1 NMatT0=    0 NMatD0=    1 NMtDS0=    0 NMtDT0=    0
         I1Cent=           4 NGrid=           0.
 Symmetry not used in FoFCou.
 Harris En= -79.7654395731474    
 Leave Link  401 at Wed May 26 19:12:28 2021, MaxMem=   13107200 cpu:       0.7
 (Enter /programs/64bit/g09/g09-gfortran/bin/l502.exe)
 Closed shell SCF:
 Requested convergence on RMS density matrix=1.00D-08 within 128 cycles.
 Requested convergence on MAX density matrix=1.00D-06.
 Requested convergence on             energy=1.00D-06.
 No special actions if energy rises.
 Using DIIS extrapolation, IDIIS=  1040.
 Two-electron integral symmetry not used.
        68702 words used for storage of precomputed grid.
 Keep R1 ints in memory in canonical form, NReq=3743087.
 IEnd=      101552 IEndB=      101552 NGot=    13107200 MDV=    10273922
 LenX=    10273922 LenY=    10268857
 Symmetry not used in FoFDir.
 MinBra= 0 MaxBra= 2 Meth= 1.
 IRaf=       0 NMat=   1 IRICut=       1 DoRegI=T DoRafI=F ISym2E= 0 JSym2E=0.

 Cycle   1  Pass 1  IDiag  1:
 E= -79.6142421428551    
 DIIS: error= 3.53D-02 at cycle   1 NSaved=   1.
 NSaved= 1 IEnMin= 1 EnMin= -79.6142421428551     IErMin= 1 ErrMin= 3.53D-02
 ErrMax= 3.53D-02 EMaxC= 1.00D-01 BMatC= 9.15D-02 BMatP= 9.15D-02
 IDIUse=3 WtCom= 6.47D-01 WtEn= 3.53D-01
 Coeff-Com:  0.100D+01
 Coeff-En:   0.100D+01
 Coeff:      0.100D+01
 Gap=     0.316 Goal=   None    Shift=    0.000
 GapD=    0.316 DampG=1.000 DampE=0.500 DampFc=0.5000 IDamp=-1.
 Damping current iteration by 5.00D-01
 RMSDP=1.08D-02 MaxDP=1.28D-01              OVMax= 2.05D-01

 Cycle   2  Pass 1  IDiag  1:
 E= -79.6586730465627     Delta-E=       -0.044430903708 Rises=F Damp=T
 DIIS: error= 8.97D-03 at cycle   2 NSaved=   2.
 NSaved= 2 IEnMin= 2 EnMin= -79.6586730465627     IErMin= 2 ErrMin= 8.97D-03
 ErrMax= 8.97D-03 EMaxC= 1.00D-01 BMatC= 4.25D-03 BMatP= 9.15D-02
 IDIUse=3 WtCom= 9.10D-01 WtEn= 8.97D-02
 Coeff-Com:  0.103D+00 0.897D+00
 Coeff-En:   0.172D+00 0.828D+00
 Coeff:      0.109D+00 0.891D+00
 Gap=     0.304 Goal=   None    Shift=    0.000
 RMSDP=1.93D-03 MaxDP=2.68D-02 DE=-4.44D-02 OVMax= 1.16D-01

 Cycle   3  Pass 1  IDiag  1:
 E= -79.7198128500984     Delta-E=       -0.061139803536 Rises=F Damp=F
 DIIS: error= 2.08D-03 at cycle   3 NSaved=   3.
 NSaved= 3 IEnMin= 3 EnMin= -79.7198128500984     IErMin= 3 ErrMin= 2.08D-03
 ErrMax= 2.08D-03 EMaxC= 1.00D-01 BMatC= 3.23D-04 BMatP= 4.25D-03
 IDIUse=3 WtCom= 9.79D-01 WtEn= 2.08D-02
 Coeff-Com:  0.568D-02 0.183D+00 0.811D+00
 Coeff-En:   0.000D+00 0.000D+00 0.100D+01
 Coeff:      0.556D-02 0.179D+00 0.815D+00
 Gap=     0.291 Goal=   None    Shift=    0.000
 RMSDP=4.47D-04 MaxDP=4.46D-03 DE=-6.11D-02 OVMax= 6.50D-03

 Cycle   4  Pass 1  IDiag  1:
 E= -79.7201287836151     Delta-E=       -0.000315933517 Rises=F Damp=F
 DIIS: error= 4.45D-04 at cycle   4 NSaved=   4.
 NSaved= 4 IEnMin= 4 EnMin= -79.7201287836151     IErMin= 4 ErrMin= 4.45D-04
 ErrMax= 4.45D-04 EMaxC= 1.00D-01 BMatC= 1.55D-05 BMatP= 3.23D-04
 IDIUse=3 WtCom= 9.96D-01 WtEn= 4.45D-03
 Coeff-Com: -0.436D-03 0.535D-03 0.176D+00 0.824D+00
 Coeff-En:   0.000D+00 0.000D+00 0.000D+00 0.100D+01
 Coeff:     -0.434D-03 0.533D-03 0.175D+00 0.824D+00
 Gap=     0.291 Goal=   None    Shift=    0.000
 RMSDP=1.09D-04 MaxDP=1.31D-03 DE=-3.16D-04 OVMax= 1.73D-03

 Cycle   5  Pass 1  IDiag  1:
 E= -79.7201434782111     Delta-E=       -0.000014694596 Rises=F Damp=F
 DIIS: error= 1.23D-04 at cycle   5 NSaved=   5.
 NSaved= 5 IEnMin= 5 EnMin= -79.7201434782111     IErMin= 5 ErrMin= 1.23D-04
 ErrMax= 1.23D-04 EMaxC= 1.00D-01 BMatC= 1.59D-06 BMatP= 1.55D-05
 IDIUse=3 WtCom= 9.99D-01 WtEn= 1.23D-03
 Coeff-Com: -0.126D-03-0.125D-02 0.892D-01 0.450D+00 0.462D+00
 Coeff-En:   0.000D+00 0.000D+00 0.000D+00 0.000D+00 0.100D+01
 Coeff:     -0.126D-03-0.125D-02 0.891D-01 0.450D+00 0.462D+00
 Gap=     0.291 Goal=   None    Shift=    0.000
 RMSDP=2.00D-05 MaxDP=2.87D-04 DE=-1.47D-05 OVMax= 6.09D-04

 Cycle   6  Pass 1  IDiag  1:
 E= -79.7201451439882     Delta-E=       -0.000001665777 Rises=F Damp=F
 DIIS: error= 2.62D-05 at cycle   6 NSaved=   6.
 NSaved= 6 IEnMin= 6 EnMin= -79.7201451439882     IErMin= 6 ErrMin= 2.62D-05
 ErrMax= 2.62D-05 EMaxC= 1.00D-01 BMatC= 7.34D-08 BMatP= 1.59D-06
 IDIUse=1 WtCom= 1.00D+00 WtEn= 0.00D+00
 Coeff-Com:  0.145D-03-0.748D-03 0.103D-01 0.634D-01 0.193D+00 0.734D+00
 Coeff:      0.145D-03-0.748D-03 0.103D-01 0.634D-01 0.193D+00 0.734D+00
 Gap=     0.291 Goal=   None    Shift=    0.000
 RMSDP=4.01D-06 MaxDP=5.68D-05 DE=-1.67D-06 OVMax= 9.17D-05

 Cycle   7  Pass 1  IDiag  1:
 E= -79.7201452207472     Delta-E=       -0.000000076759 Rises=F Damp=F
 DIIS: error= 3.09D-06 at cycle   7 NSaved=   7.
 NSaved= 7 IEnMin= 7 EnMin= -79.7201452207472     IErMin= 7 ErrMin= 3.09D-06
 ErrMax= 3.09D-06 EMaxC= 1.00D-01 BMatC= 1.23D-09 BMatP= 7.34D-08
 IDIUse=1 WtCom= 1.00D+00 WtEn= 0.00D+00
 Coeff-Com:  0.704D-04-0.184D-03-0.118D-02-0.250D-02 0.341D-01 0.191D+00
 Coeff-Com:  0.779D+00
 Coeff:      0.704D-04-0.184D-03-0.118D-02-0.250D-02 0.341D-01 0.191D+00
 Coeff:      0.779D+00
 Gap=     0.291 Goal=   None    Shift=    0.000
 RMSDP=9.97D-07 MaxDP=1.03D-05 DE=-7.68D-08 OVMax= 1.43D-05

 Cycle   8  Pass 1  IDiag  1:
 E= -79.7201452222229     Delta-E=       -0.000000001476 Rises=F Damp=F
 DIIS: error= 6.28D-07 at cycle   8 NSaved=   8.
 NSaved= 8 IEnMin= 8 EnMin= -79.7201452222229     IErMin= 8 ErrMin= 6.28D-07
 ErrMax= 6.28D-07 EMaxC= 1.00D-01 BMatC= 2.50D-11 BMatP= 1.23D-09
 IDIUse=1 WtCom= 1.00D+00 WtEn= 0.00D+00
 Coeff-Com:  0.125D-04-0.201D-04-0.506D-03-0.204D-02 0.225D-02 0.196D-01
 Coeff-Com:  0.170D+00 0.811D+00
 Coeff:      0.125D-04-0.201D-04-0.506D-03-0.204D-02 0.225D-02 0.196D-01
 Coeff:      0.170D+00 0.811D+00
 Gap=     0.291 Goal=   None    Shift=    0.000
 RMSDP=1.50D-07 MaxDP=1.75D-06 DE=-1.48D-09 OVMax= 2.53D-06

 Cycle   9  Pass 1  IDiag  1:
 E= -79.7201452222549     Delta-E=       -0.000000000032 Rises=F Damp=F
 DIIS: error= 8.57D-08 at cycle   9 NSaved=   9.
 NSaved= 9 IEnMin= 9 EnMin= -79.7201452222549     IErMin= 9 ErrMin= 8.57D-08
 ErrMax= 8.57D-08 EMaxC= 1.00D-01 BMatC= 5.82D-13 BMatP= 2.50D-11
 IDIUse=1 WtCom= 1.00D+00 WtEn= 0.00D+00
 Coeff-Com: -0.368D-06 0.194D-05-0.433D-04-0.194D-03-0.542D-03-0.245D-02
 Coeff-Com:  0.590D-02 0.141D+00 0.857D+00
 Coeff:     -0.368D-06 0.194D-05-0.433D-04-0.194D-03-0.542D-03-0.245D-02
 Coeff:      0.590D-02 0.141D+00 0.857D+00
 Gap=     0.291 Goal=   None    Shift=    0.000
 RMSDP=1.98D-08 MaxDP=2.29D-07 DE=-3.20D-11 OVMax= 4.08D-07

 Cycle  10  Pass 1  IDiag  1:
 E= -79.7201452222554     Delta-E=       -0.000000000000 Rises=F Damp=F
 DIIS: error= 1.11D-08 at cycle  10 NSaved=  10.
 NSaved=10 IEnMin=10 EnMin= -79.7201452222554     IErMin=10 ErrMin= 1.11D-08
 ErrMax= 1.11D-08 EMaxC= 1.00D-01 BMatC= 1.18D-14 BMatP= 5.82D-13
 IDIUse=1 WtCom= 1.00D+00 WtEn= 0.00D+00
 Coeff-Com: -0.401D-06 0.662D-06-0.258D-06-0.884D-06-0.155D-03-0.884D-03
 Coeff-Com: -0.228D-02 0.864D-02 0.146D+00 0.848D+00
 Coeff:     -0.401D-06 0.662D-06-0.258D-06-0.884D-06-0.155D-03-0.884D-03
 Coeff:     -0.228D-02 0.864D-02 0.146D+00 0.848D+00
 Gap=     0.291 Goal=   None    Shift=    0.000
 RMSDP=3.07D-09 MaxDP=3.33D-08 DE=-4.41D-13 OVMax= 4.73D-08

 SCF Done:  E(RB3LYP) =  -79.7201452223     A.U. after   10 cycles
             Convg  =    0.3074D-08             -V/T =  2.0109
 KE= 7.886276531885D+01 PE=-2.646844352107D+02 EE= 6.545161242333D+01
 Leave Link  502 at Wed May 26 19:12:36 2021, MaxMem=   13107200 cpu:       7.3
 (Enter /programs/64bit/g09/g09-gfortran/bin/l601.exe)
 Copying SCF densities to generalized density rwf, IOpCl= 0 IROHF=0.

 **********************************************************************

            Population analysis using the SCF density.

 **********************************************************************

 Alpha  occ. eigenvalues --  -10.19957 -10.19937  -0.75098  -0.63167  -0.47094
 Alpha  occ. eigenvalues --   -0.43192  -0.36781  -0.32867  -0.28966
 Alpha virt. eigenvalues --    0.00121   0.00930   0.04982   0.05832   0.06557
 Alpha virt. eigenvalues --    0.07342   0.08666   0.10214   0.14701   0.15453
 Alpha virt. eigenvalues --    0.19887   0.21405   0.25354   0.29454   0.32710
 Alpha virt. eigenvalues --    0.64466   0.64757   0.65688   0.68953   0.74342
 Alpha virt. eigenvalues --    0.75717   0.87800   0.88953   0.95081   0.97153
 Alpha virt. eigenvalues --    1.03466   1.04174   1.05444   1.21533   1.30534
 Alpha virt. eigenvalues --    1.43249   1.54252   1.69590   1.80454   1.92972
 Alpha virt. eigenvalues --    1.96103   2.02245   2.10425   2.14789   2.17356
 Alpha virt. eigenvalues --    2.21511   2.26516   2.36336   2.39105   2.57600
 Alpha virt. eigenvalues --    2.65949   2.66352   2.70646   2.73881   2.86660
 Alpha virt. eigenvalues --    2.91038   3.22139   3.25493   3.36303   3.41575
 Alpha virt. eigenvalues --    3.50093   3.64951   4.26379   4.66831
          Condensed to atoms (all electrons):
              1          2          3          4          5          6
     1  C    5.243643   0.139128   0.356659   0.434238   0.426192  -0.085952
     2  C    0.139128   5.220337   0.015760  -0.086078  -0.078242   0.439320
     3  H    0.356659   0.015760   0.534853  -0.049591  -0.017428   0.003527
     4  H    0.434238  -0.086078  -0.049591   0.619135  -0.037575  -0.005496
     5  H    0.426192  -0.078242  -0.017428  -0.037575   0.562184  -0.015551
     6  H   -0.085952   0.439320   0.003527  -0.005496  -0.015551   0.591099
     7  H   -0.093123   0.441032   0.002190  -0.023814   0.005687  -0.015674
     8  H    0.035408   0.340824  -0.000779   0.003792   0.000620  -0.045566
              7          8
     1  C   -0.093123   0.035408
     2  C    0.441032   0.340824
     3  H    0.002190  -0.000779
     4  H   -0.023814   0.003792
     5  H    0.005687   0.000620
     6  H   -0.015674  -0.045566
     7  H    0.578946  -0.041335
     8  H   -0.041335   0.553458
 Mulliken atomic charges:
              1
     1  C   -0.456193
     2  C   -0.432080
     3  H    0.154809
     4  H    0.145390
     5  H    0.154114
     6  H    0.134291
     7  H    0.146090
     8  H    0.153578
 Sum of Mulliken atomic charges =  -0.00000
 Mulliken charges with hydrogens summed into heavy atoms:
              1
     1  C   -0.001879
     2  C    0.001879
 Sum of Mulliken charges with hydrogens summed into heavy atoms =  -0.00000
 Electronic spatial extent (au):  <R**2>=            169.6782
 Charge=             -0.0000 electrons
 Dipole moment (field-independent basis, Debye):
    X=             -0.2690    Y=             -0.5383    Z=             -0.0164  Tot=              0.6020
 Quadrupole moment (field-independent basis, Debye-Ang):
   XX=            -15.4690   YY=            -16.4136   ZZ=            -14.6659
   XY=             -1.0479   XZ=             -0.7365   YZ=              0.1658
 Traceless Quadrupole moment (field-independent basis, Debye-Ang):
   XX=              0.0472   YY=             -0.8974   ZZ=              0.8503
   XY=             -1.0479   XZ=             -0.7365   YZ=              0.1658
 Octapole moment (field-independent basis, Debye-Ang**2):
  XXX=              1.0384  YYY=              1.8141  ZZZ=            -38.4264  XYY=              0.8925
  XXY=              0.9802  XXZ=            -13.3395  XZZ=              1.1875  YZZ=              1.3686
  YYZ=            -14.9205  XYZ=             -1.1497
 Hexadecapole moment (field-independent basis, Debye-Ang**3):
 XXXX=            -31.0483 YYYY=            -30.9122 ZZZZ=           -171.8698 XXXY=             -0.2011
 XXXZ=              0.3045 YYYX=              0.1549 YYYZ=              1.0723 ZZZX=              1.9512
 ZZZY=              4.6043 XXYY=            -10.5613 XXZZ=            -36.4072 YYZZ=            -39.5295
 XXYZ=              0.5040 YYXZ=              0.9108 ZZXY=             -1.5560
 N-N= 4.064991224622D+01 E-N=-2.646844348296D+02  KE= 7.886276531885D+01
 No NMR shielding tensors so no spin-rotation constants.
 Leave Link  601 at Wed May 26 19:12:36 2021, MaxMem=   13107200 cpu:       0.0
 (Enter /programs/64bit/g09/g09-gfortran/bin/l701.exe)
 Compute integral first derivatives.
 ... and contract with generalized density number  0.
 Leave Link  701 at Wed May 26 19:12:36 2021, MaxMem=   13107200 cpu:       0.1
 (Enter /programs/64bit/g09/g09-gfortran/bin/l702.exe)
 L702 exits ... SP integral derivatives will be done elsewhere.
 Leave Link  702 at Wed May 26 19:12:36 2021, MaxMem=   13107200 cpu:       0.0
 (Enter /programs/64bit/g09/g09-gfortran/bin/l703.exe)
 Compute integral first derivatives, UseDBF=F ICtDFT=           0.
 Integral derivatives from FoFDir, PRISM(SPDF).
 Calling FoFJK, ICntrl=      2127 FMM=F ISym2X=0 I1Cent= 0 IOpClX= 0 NMat=1 NMatS=1 NMatT=0.
 FoFCou: FMM=F IPFlag=           0 FMFlag=      100000 FMFlg1=         800
         NFxFlg=           0 DoJE=F BraDBF=F KetDBF=F FulRan=T
         Omega=  0.000000  0.000000  1.000000  0.000000  0.000000 ICntrl=    2127 IOpCl=  0
         NMat0=    1 NMatS0=    1 NMatT0=    0 NMatD0=    1 NMtDS0=    0 NMtDT0=    0
         I1Cent=           0 NGrid=           0.
 Symmetry not used in FoFCou.
 Leave Link  703 at Wed May 26 19:12:37 2021, MaxMem=   13107200 cpu:       1.4
 (Enter /programs/64bit/g09/g09-gfortran/bin/l716.exe)
 Dipole        =-1.05839876D-01-2.11801205D-01-6.44561327D-03
 -------------------------------------------------------------------
 Center     Atomic                   Forces (Hartrees/Bohr)
 Number     Number              X              Y              Z
 -------------------------------------------------------------------
      1        6          -0.034924193   -0.020930424    0.036508187
      2        6           0.021528723   -0.026004421   -0.014173201
      3        1           0.018988278    0.034266366    0.011160849
      4        1          -0.007493576    0.002231866   -0.005208195
      5        1           0.000695705    0.008994822   -0.041536344
      6        1           0.000002257   -0.023346111    0.012152837
      7        1          -0.020405884   -0.012664170    0.019888578
      8        1           0.021608691    0.037452071   -0.018792711
 -------------------------------------------------------------------
 Cartesian Forces:  Max     0.041536344 RMS     0.022148434
 -----------------------------------------------------------------------------------------------
                       Internal Coordinate Forces (Hartree/Bohr or radian)
  Cent   Atom   N1       Length/X         N2         Alpha/Y        N3         Beta/Z          J
 -----------------------------------------------------------------------------------------------
      1  C 
      2  C        1  -0.000924(     1)
      3  H        1  -0.000253(     2)      2  -0.045507(     8)
      4  H        1  -0.001199(     3)      2   0.010754(     9)      3   0.016088(    14)     0
      5  H        1   0.000006(     4)      2   0.085381(    10)      3   0.017573(    15)     0
      6  H        2   0.000034(     5)      1   0.024977(    11)      3  -0.001475(    16)     0
      7  H        2   0.000079(     6)      1   0.041058(    12)      6  -0.049574(    17)     0
      8  H        2   0.000265(     7)      1  -0.098195(    13)      6   0.000118(    18)     0
 -----------------------------------------------------------------------------------------------
 Internal  Forces:  Max     0.098194778 RMS     0.036861610
 Force constants in Cartesian coordinates: 
                1             2             3             4             5 
      1  0.638643D+00
      2 -0.596018D-01  0.582489D+00
      3 -0.138394D+00 -0.133035D-01  0.621006D+00
      4 -0.962650D-01 -0.401399D-02  0.122716D-01  0.678353D+00
      5 -0.634102D-02 -0.894813D-01  0.137212D-01 -0.915075D-01  0.553933D+00
      6 -0.515652D-02 -0.954898D-02 -0.164496D+00  0.496180D-01  0.850523D-01
      7 -0.162629D+00  0.119446D-01  0.845923D-01  0.224772D-01  0.623465D-03
      8  0.241855D-01 -0.858070D-01 -0.116396D-01 -0.197873D-02  0.108747D-01
      9  0.103946D+00  0.683733D-02 -0.295797D+00  0.128664D-01  0.356885D-03
     10 -0.735271D-01 -0.573171D-01  0.200245D-01  0.558972D-03 -0.225670D-03
     11 -0.405294D-01 -0.328724D+00  0.451962D-02 -0.179185D-03 -0.627614D-03
     12  0.192399D-01 -0.127234D-02 -0.682837D-01 -0.325409D-02 -0.233791D-01
     13 -0.322209D+00  0.102193D+00  0.215053D-01 -0.194436D-03  0.234157D-02
     14  0.738152D-01 -0.105565D+00  0.670228D-02  0.336136D-02  0.408304D-02
     15  0.152077D-01  0.773849D-02 -0.924292D-01 -0.218840D-01  0.930106D-02
     16  0.203585D-03  0.353022D-05  0.000000D+00 -0.350862D+00  0.697760D-03
     17 -0.106196D-02  0.278623D-02  0.000000D+00 -0.161035D-01 -0.809932D-01
     18  0.238536D-01 -0.543885D-03  0.000000D+00  0.133469D-01 -0.116447D-01
     19  0.340332D-02  0.198990D-02  0.000000D+00 -0.148335D+00  0.106738D+00
     20  0.195881D-02  0.153392D-02  0.000000D+00  0.123842D+00 -0.278046D+00
     21 -0.130608D-01  0.198451D-01  0.000000D+00 -0.173628D-01  0.576847D-02
     22  0.123814D-01  0.480180D-02  0.000000D+00 -0.105733D+00 -0.123268D-01
     23  0.757470D-02  0.227686D-01  0.000000D+00 -0.134207D-01 -0.119743D+00
     24 -0.563624D-02 -0.975228D-02  0.000000D+00 -0.456021D-01 -0.791761D-01
                6             7             8             9            10 
      6  0.622732D+00
      7  0.000000D+00  0.139102D+00
      8  0.000000D+00 -0.800776D-02  0.598800D-01
      9  0.000000D+00 -0.117414D+00 -0.458381D-02  0.277010D+00
     10  0.000000D+00  0.839409D-03 -0.193607D-01  0.480495D-03  0.575141D-01
     11  0.000000D+00 -0.179061D-04  0.391693D-02 -0.102498D-04  0.430286D-01
     12  0.000000D+00  0.397429D-02  0.319452D-01  0.227497D-02 -0.189388D-01
     13  0.000000D+00  0.210600D-03  0.377346D-02  0.120552D-03  0.139365D-01
     14  0.000000D+00 -0.454239D-02  0.119627D-01 -0.260016D-02  0.342789D-01
     15  0.000000D+00  0.288470D-01 -0.157218D-01  0.165126D-01 -0.156618D-02
     16  0.233060D-02  0.000000D+00  0.322581D-05  0.000000D+00  0.157564D-05
     17 -0.108130D-01  0.000000D+00  0.109025D-02  0.000000D+00  0.532533D-03
     18 -0.783177D-01  0.000000D+00  0.000000D+00  0.000000D+00  0.000000D+00
     19 -0.108171D-01  0.000000D+00 -0.918488D-03  0.000000D+00 -0.448633D-03
     20 -0.301822D-02  0.000000D+00 -0.578488D-03  0.000000D+00 -0.282561D-03
     21 -0.770050D-01  0.000000D+00  0.000000D+00  0.000000D+00  0.000000D+00
     22 -0.359750D-01  0.000000D+00  0.230351D-02  0.000000D+00  0.112515D-02
     23 -0.616722D-01  0.000000D+00 -0.133906D-02  0.000000D+00 -0.654062D-03
     24 -0.302913D+00  0.000000D+00  0.000000D+00  0.000000D+00  0.000000D+00
               11            12            13            14            15 
     11  0.330776D+00
     12 -0.475975D-02  0.657697D-01
     13 -0.219666D-02 -0.102137D-02  0.308521D+00
     14 -0.540362D-02 -0.253399D-02 -0.106269D+00  0.945390D-01
     15  0.250383D-03  0.239059D-03 -0.206045D-01 -0.156814D-02  0.756775D-01
     16  0.000000D+00  0.000000D+00  0.000000D+00 -0.149714D-05  0.000000D+00
     17 -0.828309D-04  0.000000D+00 -0.207382D-03 -0.506001D-03  0.000000D+00
     18  0.000000D+00  0.000000D+00  0.000000D+00  0.000000D+00  0.000000D+00
     19  0.697811D-04  0.000000D+00  0.174709D-03  0.426282D-03  0.000000D+00
     20  0.439500D-04  0.000000D+00  0.110037D-03  0.268483D-03  0.000000D+00
     21  0.000000D+00  0.000000D+00  0.000000D+00  0.000000D+00  0.000000D+00
     22 -0.175007D-03  0.000000D+00 -0.438160D-03 -0.106909D-02  0.000000D+00
     23  0.101734D-03  0.000000D+00  0.254708D-03  0.621475D-03  0.000000D+00
     24  0.000000D+00  0.000000D+00  0.000000D+00  0.000000D+00  0.000000D+00
               16            17            18            19            20 
     16  0.350907D+00
     17 -0.793029D-03  0.507136D-01
     18 -0.239154D-02  0.109895D-01  0.712258D-01
     19  0.886420D-04  0.320527D-01 -0.714745D-03  0.133962D+00
     20  0.558160D-04  0.201767D-01 -0.447926D-03 -0.132982D+00  0.261643D+00
     21  0.000000D+00 -0.774332D-03  0.158386D-03  0.111913D-01  0.316094D-02
     22 -0.338141D-03 -0.144194D-01 -0.340942D-01  0.111544D-01  0.729734D-02
     23  0.344393D-04  0.681530D-02  0.164708D-02 -0.737666D-02 -0.504196D-02
     24  0.618585D-04  0.597830D-03  0.693355D-02  0.340502D-03  0.305206D-03
               21            22            23            24 
     21  0.704292D-01
     22  0.192332D-01  0.818486D-01
     23 -0.280002D-01  0.135876D-01  0.958166D-01
     24  0.641748D-02  0.508360D-01  0.880253D-01  0.289562D+00
 Force constants in internal coordinates: 
                1             2             3             4             5 
      1  0.164496D+00
      2  0.000000D+00  0.344220D+00
      3  0.000000D+00  0.000000D+00  0.337603D+00
      4  0.000000D+00  0.000000D+00  0.000000D+00  0.353555D+00
      5  0.000000D+00  0.000000D+00  0.000000D+00  0.000000D+00  0.350930D+00
      6  0.000000D+00  0.000000D+00  0.000000D+00  0.000000D+00  0.000000D+00
      7  0.000000D+00  0.000000D+00  0.000000D+00  0.000000D+00  0.000000D+00
      8  0.000000D+00  0.000000D+00  0.000000D+00  0.000000D+00  0.000000D+00
      9  0.000000D+00  0.000000D+00  0.000000D+00  0.000000D+00  0.000000D+00
     10  0.000000D+00  0.000000D+00  0.000000D+00  0.000000D+00  0.000000D+00
     11  0.000000D+00  0.000000D+00  0.000000D+00  0.000000D+00  0.000000D+00
     12  0.000000D+00  0.000000D+00  0.000000D+00  0.000000D+00  0.000000D+00
     13  0.000000D+00  0.000000D+00  0.000000D+00  0.000000D+00  0.000000D+00
     14  0.000000D+00  0.000000D+00  0.000000D+00  0.000000D+00  0.000000D+00
     15  0.000000D+00  0.000000D+00  0.000000D+00  0.000000D+00  0.000000D+00
     16  0.000000D+00  0.000000D+00  0.000000D+00  0.000000D+00  0.000000D+00
     17  0.000000D+00  0.000000D+00  0.000000D+00  0.000000D+00  0.000000D+00
     18  0.000000D+00  0.000000D+00  0.000000D+00  0.000000D+00  0.000000D+00
                6             7             8             9            10 
      6  0.345354D+00
      7  0.000000D+00  0.334423D+00
      8  0.000000D+00  0.000000D+00  0.306932D+00
      9  0.000000D+00  0.000000D+00  0.196638D-01  0.282905D+00
     10  0.000000D+00  0.000000D+00  0.141173D+00  0.102121D-02  0.313185D+00
     11  0.000000D+00  0.000000D+00  0.000000D+00  0.000000D+00  0.000000D+00
     12  0.000000D+00  0.000000D+00  0.000000D+00  0.000000D+00  0.000000D+00
     13  0.000000D+00  0.000000D+00  0.000000D+00  0.000000D+00  0.000000D+00
     14  0.000000D+00  0.000000D+00  0.411423D-02 -0.776012D-01 -0.676998D-02
     15  0.000000D+00  0.000000D+00  0.200897D-01  0.116193D-01  0.389741D-01
     16  0.000000D+00  0.000000D+00  0.000000D+00  0.000000D+00  0.000000D+00
     17  0.000000D+00  0.000000D+00  0.000000D+00  0.000000D+00  0.000000D+00
     18  0.000000D+00  0.000000D+00  0.000000D+00  0.000000D+00  0.000000D+00
               11            12            13            14            15 
     11  0.300770D+00
     12  0.672066D-03  0.299972D+00
     13  0.735134D-01  0.683459D-01  0.256969D+00
     14  0.000000D+00  0.000000D+00  0.000000D+00  0.219483D+00
     15  0.000000D+00  0.000000D+00  0.000000D+00 -0.159194D+00  0.212478D+00
     16  0.240885D-02 -0.247939D-02 -0.286090D-03  0.690000D-02  0.690000D-02
     17 -0.357865D-02  0.475346D-01  0.480003D-02  0.230000D-02  0.230000D-02
     18  0.523771D-01 -0.532994D-01  0.125385D-02  0.230000D-02  0.230000D-02
               16            17            18 
     16  0.486420D-01
     17  0.258220D-01  0.214288D+00
     18 -0.322889D-02 -0.277907D-01  0.520280D-01
 Leave Link  716 at Wed May 26 19:12:37 2021, MaxMem=   13107200 cpu:       0.0
 (Enter /programs/64bit/g09/g09-gfortran/bin/l103.exe)

 GradGradGradGradGradGradGradGradGradGradGradGradGradGradGradGradGradGrad
 Berny optimization.
 Search for a local minimum.
 Step number   1 out of a maximum of    2
 All quantities printed in internal units (Hartrees-Bohrs-Radians)
 Second derivative matrix not updated -- first step.
 The second derivative matrix:
                          d1        a1        t1        d2        a2
           d1           0.16450
           a1           0.00000   0.30693
           t1           0.00000   0.00411   0.21948
           d2           0.00000  -0.00000   0.00000   0.34422
           a2          -0.00000   0.01966  -0.07760   0.00000   0.28290
           t2           0.00000   0.02009  -0.15919   0.00000   0.01162
           d3          -0.00000   0.00000   0.00000   0.00000  -0.00000
           d4           0.00000  -0.00000  -0.00000  -0.00000   0.00000
           a3           0.00000   0.14117  -0.00677   0.00000   0.00102
           d5           0.00000   0.00000  -0.00000   0.00000  -0.00000
           a4          -0.00000   0.00000  -0.00000   0.00000  -0.00000
           t3          -0.00000   0.00000   0.00690   0.00000  -0.00000
           d6          -0.00000   0.00000  -0.00000   0.00000  -0.00000
           a5          -0.00000   0.00000   0.00000   0.00000   0.00000
           t4          -0.00000   0.00000   0.00230   0.00000  -0.00000
           d7           0.00000   0.00000  -0.00000   0.00000  -0.00000
           a6           0.00000   0.00000   0.00000   0.00000   0.00000
           t5          -0.00000   0.00000   0.00230   0.00000  -0.00000
                          t2        d3        d4        a3        d5
           t2           0.21248
           d3          -0.00000   0.33760
           d4          -0.00000  -0.00000   0.35355
           a3           0.03897  -0.00000   0.00000   0.31319
           d5           0.00000  -0.00000  -0.00000  -0.00000   0.35093
           a4          -0.00000   0.00000   0.00000   0.00000  -0.00000
           t3           0.00690  -0.00000   0.00000   0.00000  -0.00000
           d6           0.00000  -0.00000   0.00000  -0.00000   0.00000
           a5          -0.00000   0.00000  -0.00000  -0.00000   0.00000
           t4           0.00230  -0.00000  -0.00000  -0.00000   0.00000
           d7           0.00000  -0.00000   0.00000   0.00000  -0.00000
           a6           0.00000   0.00000  -0.00000  -0.00000  -0.00000
           t5           0.00230  -0.00000   0.00000   0.00000  -0.00000
                          a4        t3        d6        a5        t4
           a4           0.30077
           t3           0.00241   0.04864
           d6           0.00000  -0.00000   0.34535
           a5           0.00067  -0.00248   0.00000   0.29997
           t4          -0.00358   0.02582  -0.00000   0.04753   0.21429
           d7          -0.00000  -0.00000  -0.00000   0.00000  -0.00000
           a6           0.07351  -0.00029   0.00000   0.06835   0.00480
           t5           0.05238  -0.00323  -0.00000  -0.05330  -0.02779
                          d7        a6        t5
           d7           0.33442
           a6          -0.00000   0.25697
           t5          -0.00000   0.00125   0.05203
     Eigenvalues --- 1000.000001000.000001000.000001000.000001000.00000
     Eigenvalues --- 1000.000001000.000001000.000001000.000001000.00000
     Eigenvalues --- 1000.000001000.000001000.000001000.000001000.00000
     Eigenvalues --- 1000.000001000.000001000.00000
 Angle between quadratic step and forces=  90.00 degrees.
 Linear search not attempted -- first point.
 Variable       Old X    -DE/DX   Delta X   Delta X   Delta X     New X
                                 (Linear)    (Quad)   (Total)
    d1        3.27763  -0.00092   0.00000   0.00000   0.00000   3.27763
    a1        2.62170  -0.04551   0.00000   0.00000   0.00000   2.62170
    t1        1.72510   0.01609   0.00000   0.00000   0.00000   1.72510
    d2        2.06624  -0.00025   0.00000   0.00000   0.00000   2.06624
    a2        1.54279   0.01075   0.00000   0.00000   0.00000   1.54279
    t2       -2.75263   0.01757   0.00000   0.00000   0.00000  -2.75263
    d3        2.07736  -0.00120   0.00000   0.00000   0.00000   2.07736
    d4        2.05102   0.00001   0.00000   0.00000   0.00000   2.05102
    a3        1.50442   0.08538   0.00000   0.00000   0.00000   1.50442
    d5        2.05524   0.00003   0.00000   0.00000   0.00000   2.05524
    a4        1.57946   0.02498   0.00000   0.00000   0.00000   1.57946
    t3        3.13863  -0.00148   0.00000   0.00000   0.00000   3.13863
    d6        2.06436   0.00008   0.00000   0.00000   0.00000   2.06436
    a5        1.58276   0.04106   0.00000   0.00000   0.00000   1.58276
    t4        2.13582  -0.04957   0.00000   0.00000   0.00000   2.13582
    d7        2.08282   0.00027   0.00000   0.00000   0.00000   2.08282
    a6        2.72597  -0.09819   0.00000   0.00000   0.00000   2.72597
    t5       -2.09440   0.00012   0.00000   0.00000   0.00000  -2.09440
         Item               Value     Threshold  Converged?
 Maximum Force            0.000000     0.000450     YES
 RMS     Force            0.000000     0.000300     YES
 Maximum Displacement     0.000000     0.001800     YES
 RMS     Displacement     0.000000     0.001200     YES
 Predicted change in Energy=-0.000000D+00
 Optimization completed.
    -- Stationary point found.
                       ----------------------------
                       !   Optimized Parameters   !
                       ! (Angstroms and Degrees)  !
 ----------------------                            ----------------------
 !      Name          Value   Derivative information (Atomic Units)     !
 ------------------------------------------------------------------------
 !       d1          1.7344   -DE/DX =   -0.0009                        !
 !       a1        150.2123   -DE/DX =   -0.0455                        !
 !       t1         98.841    -DE/DX =    0.0161                        !
 !       d2          1.0934   -DE/DX =   -0.0003                        !
 !       a2         88.3956   -DE/DX =    0.0108                        !
 !       t2       -157.714    -DE/DX =    0.0176                        !
 !       d3          1.0993   -DE/DX =   -0.0012                        !
 !       d4          1.0854   -DE/DX =    0.0                           !
 !       a3         86.1971   -DE/DX =    0.0854                        !
 !       d5          1.0876   -DE/DX =    0.0                           !
 !       a4         90.4965   -DE/DX =    0.025                         !
 !       t3        179.8305   -DE/DX =   -0.0015                        !
 !       d6          1.0924   -DE/DX =    0.0001                        !
 !       a5         90.6855   -DE/DX =    0.0411                        !
 !       t4        122.3733   -DE/DX =   -0.0496                        !
 !       d7          1.1022   -DE/DX =    0.0003                        !
 !       a6        156.1868   -DE/DX =   -0.0982                        !
 !       t5       -120.0005   -DE/DX =    0.0001                        !
 ------------------------------------------------------------------------
 GradGradGradGradGradGradGradGradGradGradGradGradGradGradGradGradGradGrad

 Leave Link  103 at Wed May 26 19:12:37 2021, MaxMem=   13107200 cpu:       0.0
 (Enter /programs/64bit/g09/g09-gfortran/bin/l9999.exe)
 1\1\GINC-MOLMOD\Force\RB3LYP\6-31+G(d,p)\C2H6\OSPITE\26-May-2021\1\\#p
  b3lyp/6-31+g(d,p) force nosym\\c2h6 molecule\\0,1\C\C,1,d1\H,1,d2,2,a
 1\H,1,d3,2,a2,3,t1,0\H,1,d4,2,a3,3,t2,0\H,2,d5,1,a4,3,t3,0\H,2,d6,1,a5
 ,6,t4,0\H,2,d7,1,a6,6,t5,0\\d1=1.73444579\a1=150.21227914\t1=98.841024
 13\d2=1.09340596\a2=88.39558649\t2=-157.71398934\d3=1.09929374\d4=1.08
 535109\a3=86.19710166\d5=1.08758676\a4=90.49653967\t3=179.8304759\d6=1
 .09241217\a5=90.68553375\t4=122.37332434\d7=1.10217896\a6=156.1867951\
 t5=-120.00047589\\Version=EM64L-G09RevA.02\HF=-79.7201452\RMSD=3.074e-
 09\RMSF=2.215e-02\Dipole=-0.1058399,-0.2118012,-0.0064456\Quadrupole=0
 .0350625,-0.6672065,0.632144,-0.7791206,-0.5475459,0.1232612\PG=C01 [X
 (C2H6)]\\@


 I WISH TO HAVE NO CONNECTION WITH ANY SHIP THAT DOES NOT SAIL FAST,
 FOR I INTEND TO GO IN HARM'S WAY.
     -- JOHN PAUL JONES, USN 1747-1792
 Job cpu time:  0 days  0 hours  0 minutes  9.8 seconds.
 File lengths (MBytes):  RWF=      5 Int=      0 D2E=      0 Chk=      1 Scr=      1
 Normal termination of Gaussian 09 at Wed May 26 19:12:37 2021.
