 Entering Gaussian System, Link 0=g09
 Input=c2h6_051.com
 Output=c2h6_051.log
 Initial command:
 /programs/64bit/g09/g09-gfortran/bin/l1.exe /data/scratch/Gau-7145.inp -scrdir=/data/scratch/
 Entering Link 1 = /programs/64bit/g09/g09-gfortran/bin/l1.exe PID=      7146.
  
 Copyright (c) 1988,1990,1992,1993,1995,1998,2003,2009, Gaussian, Inc.
                  All Rights Reserved.
  
 This is part of the Gaussian(R) 09 program.  It is based on
 the Gaussian(R) 03 system (copyright 2003, Gaussian, Inc.),
 the Gaussian(R) 98 system (copyright 1998, Gaussian, Inc.),
 the Gaussian(R) 94 system (copyright 1995, Gaussian, Inc.),
 the Gaussian 92(TM) system (copyright 1992, Gaussian, Inc.),
 the Gaussian 90(TM) system (copyright 1990, Gaussian, Inc.),
 the Gaussian 88(TM) system (copyright 1988, Gaussian, Inc.),
 the Gaussian 86(TM) system (copyright 1986, Carnegie Mellon
 University), and the Gaussian 82(TM) system (copyright 1983,
 Carnegie Mellon University). Gaussian is a federally registered
 trademark of Gaussian, Inc.
  
 This software contains proprietary and confidential information,
 including trade secrets, belonging to Gaussian, Inc.
  
 This software is provided under written license and may be
 used, copied, transmitted, or stored only in accord with that
 written license.
  
 The following legend is applicable only to US Government
 contracts under FAR:
  
                    RESTRICTED RIGHTS LEGEND
  
 Use, reproduction and disclosure by the US Government is
 subject to restrictions as set forth in subparagraphs (a)
 and (c) of the Commercial Computer Software - Restricted
 Rights clause in FAR 52.227-19.
  
 Gaussian, Inc.
 340 Quinnipiac St., Bldg. 40, Wallingford CT 06492
  
  
 ---------------------------------------------------------------
 Warning -- This program may not be used in any manner that
 competes with the business of Gaussian, Inc. or will provide
 assistance to any competitor of Gaussian, Inc.  The licensee
 of this program is prohibited from giving any competitor of
 Gaussian, Inc. access to this program.  By using this program,
 the user acknowledges that Gaussian, Inc. is engaged in the
 business of creating and licensing software in the field of
 computational chemistry and represents and warrants to the
 licensee that it is not a competitor of Gaussian, Inc. and that
 it will not use this program in any manner prohibited above.
 ---------------------------------------------------------------
  

 Cite this work as:
 Gaussian 09, Revision A.02,
 M. J. Frisch, G. W. Trucks, H. B. Schlegel, G. E. Scuseria, 
 M. A. Robb, J. R. Cheeseman, G. Scalmani, V. Barone, B. Mennucci, 
 G. A. Petersson, H. Nakatsuji, M. Caricato, X. Li, H. P. Hratchian, 
 A. F. Izmaylov, J. Bloino, G. Zheng, J. L. Sonnenberg, M. Hada, 
 M. Ehara, K. Toyota, R. Fukuda, J. Hasegawa, M. Ishida, T. Nakajima, 
 Y. Honda, O. Kitao, H. Nakai, T. Vreven, J. A. Montgomery, Jr., 
 J. E. Peralta, F. Ogliaro, M. Bearpark, J. J. Heyd, E. Brothers, 
 K. N. Kudin, V. N. Staroverov, R. Kobayashi, J. Normand, 
 K. Raghavachari, A. Rendell, J. C. Burant, S. S. Iyengar, J. Tomasi, 
 M. Cossi, N. Rega, J. M. Millam, M. Klene, J. E. Knox, J. B. Cross, 
 V. Bakken, C. Adamo, J. Jaramillo, R. Gomperts, R. E. Stratmann, 
 O. Yazyev, A. J. Austin, R. Cammi, C. Pomelli, J. W. Ochterski, 
 R. L. Martin, K. Morokuma, V. G. Zakrzewski, G. A. Voth, 
 P. Salvador, J. J. Dannenberg, S. Dapprich, A. D. Daniels, 
 O. Farkas, J. B. Foresman, J. V. Ortiz, J. Cioslowski, 
 and D. J. Fox, Gaussian, Inc., Wallingford CT, 2009.
 
 ******************************************
 Gaussian 09:  EM64L-G09RevA.02 11-Jun-2009
                26-May-2021 
 ******************************************
 %chk=c2h6_051.chk
 %mem=100MB
 --------------------------------
 #p b3lyp/6-31+g(d,p) force nosym
 --------------------------------
 1/10=7,30=1,38=1/1,3;
 2/12=2,15=1,17=6,18=5,40=1/2;
 3/5=1,6=6,7=111,11=2,16=1,25=1,30=1,71=1,74=-5/1,2,3;
 4//1;
 5/5=2,38=5/2;
 6/7=2,8=2,9=2,10=2,28=1/1;
 7/29=1,30=1/1,2,3,16;
 1/10=7,30=1/3;
 99//99;
 Leave Link    1 at Wed May 26 19:16:09 2021, MaxMem=   13107200 cpu:       0.0
 (Enter /programs/64bit/g09/g09-gfortran/bin/l101.exe)
 -------------
 c2h6 molecule
 -------------
 Symbolic Z-matrix:
 Charge =  0 Multiplicity = 1
 C1
 C2                   1    d1
 H3                   1    d2       2    a1
 H4                   1    d3       2    a2       3    t1       0
 H5                   1    d4       2    a3       3    t2       0
 H6                   2    d5       1    a4       3    t3       0
 H7                   2    d6       1    a5       6    t4       0
 H8                   2    d7       1    a6       6    t5       0
       Variables:
       Constants:
  d1                    1.54717                  
  a1                  125.76047                  
  t1                  107.13893                  
  d2                    1.13206                  
  a2                   99.27531                  
  t2                 -148.68693                  
  d3                    1.17886                  
  d4                    1.07765                  
  a3                  116.34198                  
  d5                    1.11642                  
  a4                  103.64625                  
  t3                  180.                       
  d6                    1.08998                  
  a5                  110.65483                  
  t4                  108.78075                  
  d7                    1.06081                  
  a6                  120.02579                  
  t5                 -121.42776                  
 
 NAtoms=      8 NQM=      8 NQMF=      0 NMic=      0 NMicF=      0 NTot=      8.
                    Isotopes and Nuclear Properties:
 (Nuclear quadrupole moments (NQMom) in fm**2, nuclear magnetic moments (NMagM)
  in nuclear magnetons)

  Atom         1           2           3           4           5           6           7           8
 IAtWgt=          12          12           1           1           1           1           1           1
 AtmWgt=  12.0000000  12.0000000   1.0078250   1.0078250   1.0078250   1.0078250   1.0078250   1.0078250
 NucSpn=           0           0           1           1           1           1           1           1
 AtZEff=   0.0000000   0.0000000   0.0000000   0.0000000   0.0000000   0.0000000   0.0000000   0.0000000
 NQMom=    0.0000000   0.0000000   0.0000000   0.0000000   0.0000000   0.0000000   0.0000000   0.0000000
 NMagM=    0.0000000   0.0000000   2.7928460   2.7928460   2.7928460   2.7928460   2.7928460   2.7928460
 Leave Link  101 at Wed May 26 19:16:09 2021, MaxMem=   13107200 cpu:       0.0
 (Enter /programs/64bit/g09/g09-gfortran/bin/l103.exe)

 GradGradGradGradGradGradGradGradGradGradGradGradGradGradGradGradGradGrad
 Berny optimization.
 Initialization pass.
                       ----------------------------
                       !    Initial Parameters    !
                       ! (Angstroms and Degrees)  !
 ----------------------                            ----------------------
 !      Name          Value   Derivative information (Atomic Units)     !
 ------------------------------------------------------------------------
 !       d1          1.5472   Frozen                                    !
 !       a1        125.7605   Frozen                                    !
 !       t1        107.1389   Frozen                                    !
 !       d2          1.1321   Frozen                                    !
 !       a2         99.2753   Frozen                                    !
 !       t2       -148.6869   Frozen                                    !
 !       d3          1.1789   Frozen                                    !
 !       d4          1.0777   Frozen                                    !
 !       a3        116.342    Frozen                                    !
 !       d5          1.1164   Frozen                                    !
 !       a4        103.6462   Frozen                                    !
 !       t3        180.0      Frozen                                    !
 !       d6          1.09     Frozen                                    !
 !       a5        110.6548   Frozen                                    !
 !       t4        108.7808   Frozen                                    !
 !       d7          1.0608   Frozen                                    !
 !       a6        120.0258   Frozen                                    !
 !       t5       -121.4278   Frozen                                    !
 ------------------------------------------------------------------------
 Trust Radius=3.00D-01 FncErr=1.00D-07 GrdErr=1.00D-07
 Number of steps in this run=   2 maximum allowed number of steps=   2.
 GradGradGradGradGradGradGradGradGradGradGradGradGradGradGradGradGradGrad

 Leave Link  103 at Wed May 26 19:16:09 2021, MaxMem=   13107200 cpu:       0.0
 (Enter /programs/64bit/g09/g09-gfortran/bin/l202.exe)
                          Input orientation:                          
 ---------------------------------------------------------------------
 Center     Atomic      Atomic             Coordinates (Angstroms)
 Number     Number       Type             X           Y           Z
 ---------------------------------------------------------------------
      1          6           0        0.000000    0.000000    0.000000
      2          6           0        0.000000    0.000000    1.547174
      3          1           0        0.918629    0.000000   -0.661573
      4          1           0       -0.342856   -1.111784   -0.190007
      5          1           0       -0.825081    0.501915   -0.478185
      6          1           0       -1.084907    0.000000    1.810568
      7          1           0        0.328362   -0.965620    1.931652
      8          1           0        0.478901    0.783712    2.077993
 ---------------------------------------------------------------------
                    Distance matrix (angstroms):
                    1          2          3          4          5
     1  C    0.000000
     2  C    1.547174   0.000000
     3  H    1.132059   2.392163   0.000000
     4  H    1.178863   2.090793   1.746363   0.000000
     5  H    1.077654   2.243826   1.823753   1.708687   0.000000
     6  H    2.110729   1.116422   3.182080   2.406035   2.357502
     7  H    2.184382   1.089985   2.829427   2.230098   3.048181
     8  H    2.271917   1.060811   2.883190   3.067901   2.883371
                    6          7          8
     6  H    0.000000
     7  H    1.715929   0.000000
     8  H    1.769524   1.761885   0.000000
 Symmetry turned off by external request.
 Stoichiometry    C2H6
 Framework group  C1[X(C2H6)]
 Deg. of freedom    18
 Full point group                 C1      NOp   1
 Rotational constants (GHZ):     81.4786935     19.3343261     19.2295107
 Leave Link  202 at Wed May 26 19:16:09 2021, MaxMem=   13107200 cpu:       0.0
 (Enter /programs/64bit/g09/g09-gfortran/bin/l301.exe)
 Standard basis: 6-31+G(d,p) (6D, 7F)
 Ernie: Thresh=  0.10000D-02 Tol=  0.10000D-05 Strict=F.
 Integral buffers will be    131072 words long.
 Raffenetti 2 integral format.
 Two-electron integral symmetry is turned off.
    68 basis functions,   106 primitive gaussians,    68 cartesian basis functions
     9 alpha electrons        9 beta electrons
       nuclear repulsion energy        41.6822893941 Hartrees.
 IExCor=  402 DFT=T Ex+Corr=B3LYP ExCW=0 ScaHFX=  0.200000
 ScaDFX=  0.800000  0.720000  1.000000  0.810000 ScalE2=  1.000000  1.000000
 IRadAn=      0 IRanWt=     -1 IRanGd=            0 ICorTp=0
 NAtoms=    8 NActive=    8 NUniq=    8 SFac= 7.50D-01 NAtFMM=   80 NAOKFM=F Big=F
 Leave Link  301 at Wed May 26 19:16:09 2021, MaxMem=   13107200 cpu:       0.0
 (Enter /programs/64bit/g09/g09-gfortran/bin/l302.exe)
 NPDir=0 NMtPBC=     1 NCelOv=     1 NCel=       1 NClECP=     1 NCelD=      1
         NCelK=      1 NCelE2=     1 NClLst=     1 CellRange=     0.0.
 One-electron integrals computed using PRISM.
 NBasis=    68 RedAO= T  NBF=    68
 NBsUse=    68 1.00D-06 NBFU=    68
 Precomputing XC quadrature grid using
 IXCGrd= 2 IRadAn=           0 IRanWt=          -1 IRanGd=           0 AccXCQ= 1.00D-10.
 NRdTot=     510 NPtTot=       65100 NUsed=       68787 NTot=       68819
 NSgBfM=    68    68    68    68    68 NAtAll=     8     8.
 Leave Link  302 at Wed May 26 19:16:09 2021, MaxMem=   13107200 cpu:       0.1
 (Enter /programs/64bit/g09/g09-gfortran/bin/l303.exe)
 DipDrv:  MaxL=1.
 Leave Link  303 at Wed May 26 19:16:09 2021, MaxMem=   13107200 cpu:       0.0
 (Enter /programs/64bit/g09/g09-gfortran/bin/l401.exe)
 Harris functional with IExCor=  402 diagonalized for initial guess.
 ExpMin= 4.38D-02 ExpMax= 3.05D+03 ExpMxC= 4.57D+02 IAcc=2 IRadAn=         0 AccDes= 0.00D+00
 HarFok:  IExCor=  402 AccDes= 0.00D+00 IRadAn=         0 IDoV= 1
 ScaDFX=  1.000000  1.000000  1.000000  1.000000
 FoFCou: FMM=F IPFlag=           0 FMFlag=      100000 FMFlg1=           0
         NFxFlg=           0 DoJE=T BraDBF=F KetDBF=T FulRan=T
         Omega=  0.000000  0.000000  1.000000  0.000000  0.000000 ICntrl=     500 IOpCl=  0
         NMat0=    1 NMatS0=    1 NMatT0=    0 NMatD0=    1 NMtDS0=    0 NMtDT0=    0
         I1Cent=           4 NGrid=           0.
 Symmetry not used in FoFCou.
 Harris En= -79.8700620230550    
 Leave Link  401 at Wed May 26 19:16:10 2021, MaxMem=   13107200 cpu:       0.7
 (Enter /programs/64bit/g09/g09-gfortran/bin/l502.exe)
 Closed shell SCF:
 Requested convergence on RMS density matrix=1.00D-08 within 128 cycles.
 Requested convergence on MAX density matrix=1.00D-06.
 Requested convergence on             energy=1.00D-06.
 No special actions if energy rises.
 Using DIIS extrapolation, IDIIS=  1040.
 Two-electron integral symmetry not used.
        68702 words used for storage of precomputed grid.
 Keep R1 ints in memory in canonical form, NReq=3743087.
 IEnd=      101552 IEndB=      101552 NGot=    13107200 MDV=    10273922
 LenX=    10273922 LenY=    10268857
 Symmetry not used in FoFDir.
 MinBra= 0 MaxBra= 2 Meth= 1.
 IRaf=       0 NMat=   1 IRICut=       1 DoRegI=T DoRafI=F ISym2E= 0 JSym2E=0.

 Cycle   1  Pass 1  IDiag  1:
 E= -79.6959280197155    
 DIIS: error= 3.89D-02 at cycle   1 NSaved=   1.
 NSaved= 1 IEnMin= 1 EnMin= -79.6959280197155     IErMin= 1 ErrMin= 3.89D-02
 ErrMax= 3.89D-02 EMaxC= 1.00D-01 BMatC= 1.09D-01 BMatP= 1.09D-01
 IDIUse=3 WtCom= 6.11D-01 WtEn= 3.89D-01
 Coeff-Com:  0.100D+01
 Coeff-En:   0.100D+01
 Coeff:      0.100D+01
 Gap=     0.266 Goal=   None    Shift=    0.000
 GapD=    0.266 DampG=1.000 DampE=0.500 DampFc=0.5000 IDamp=-1.
 Damping current iteration by 5.00D-01
 RMSDP=9.84D-03 MaxDP=1.41D-01              OVMax= 1.97D-01

 Cycle   2  Pass 1  IDiag  1:
 E= -79.7461547958867     Delta-E=       -0.050226776171 Rises=F Damp=T
 DIIS: error= 1.10D-02 at cycle   2 NSaved=   2.
 NSaved= 2 IEnMin= 2 EnMin= -79.7461547958867     IErMin= 2 ErrMin= 1.10D-02
 ErrMax= 1.10D-02 EMaxC= 1.00D-01 BMatC= 5.11D-03 BMatP= 1.09D-01
 IDIUse=3 WtCom= 8.90D-01 WtEn= 1.10D-01
 Coeff-Com:  0.121D+00 0.879D+00
 Coeff-En:   0.205D+00 0.795D+00
 Coeff:      0.130D+00 0.870D+00
 Gap=     0.370 Goal=   None    Shift=    0.000
 RMSDP=1.55D-03 MaxDP=1.29D-02 DE=-5.02D-02 OVMax= 1.15D-01

 Cycle   3  Pass 1  IDiag  1:
 E= -79.8197837145423     Delta-E=       -0.073628918656 Rises=F Damp=F
 DIIS: error= 1.74D-03 at cycle   3 NSaved=   3.
 NSaved= 3 IEnMin= 3 EnMin= -79.8197837145423     IErMin= 3 ErrMin= 1.74D-03
 ErrMax= 1.74D-03 EMaxC= 1.00D-01 BMatC= 2.55D-04 BMatP= 5.11D-03
 IDIUse=3 WtCom= 9.83D-01 WtEn= 1.74D-02
 Coeff-Com:  0.125D-01 0.145D+00 0.842D+00
 Coeff-En:   0.000D+00 0.000D+00 0.100D+01
 Coeff:      0.123D-01 0.143D+00 0.845D+00
 Gap=     0.338 Goal=   None    Shift=    0.000
 RMSDP=3.04D-04 MaxDP=3.19D-03 DE=-7.36D-02 OVMax= 5.61D-03

 Cycle   4  Pass 1  IDiag  1:
 E= -79.8199865813092     Delta-E=       -0.000202866767 Rises=F Damp=F
 DIIS: error= 9.18D-04 at cycle   4 NSaved=   4.
 NSaved= 4 IEnMin= 4 EnMin= -79.8199865813092     IErMin= 4 ErrMin= 9.18D-04
 ErrMax= 9.18D-04 EMaxC= 1.00D-01 BMatC= 4.45D-05 BMatP= 2.55D-04
 IDIUse=3 WtCom= 9.91D-01 WtEn= 9.18D-03
 Coeff-Com:  0.108D-02 0.118D-01 0.286D+00 0.701D+00
 Coeff-En:   0.000D+00 0.000D+00 0.000D+00 0.100D+01
 Coeff:      0.107D-02 0.117D-01 0.284D+00 0.704D+00
 Gap=     0.338 Goal=   None    Shift=    0.000
 RMSDP=1.05D-04 MaxDP=1.83D-03 DE=-2.03D-04 OVMax= 2.77D-03

 Cycle   5  Pass 1  IDiag  1:
 E= -79.8200215487068     Delta-E=       -0.000034967398 Rises=F Damp=F
 DIIS: error= 4.45D-04 at cycle   5 NSaved=   5.
 NSaved= 5 IEnMin= 5 EnMin= -79.8200215487068     IErMin= 5 ErrMin= 4.45D-04
 ErrMax= 4.45D-04 EMaxC= 1.00D-01 BMatC= 8.95D-06 BMatP= 4.45D-05
 IDIUse=3 WtCom= 9.96D-01 WtEn= 4.45D-03
 Coeff-Com:  0.117D-03-0.356D-02 0.918D-01 0.369D+00 0.543D+00
 Coeff-En:   0.000D+00 0.000D+00 0.000D+00 0.105D+00 0.895D+00
 Coeff:      0.116D-03-0.355D-02 0.914D-01 0.368D+00 0.544D+00
 Gap=     0.338 Goal=   None    Shift=    0.000
 RMSDP=3.54D-05 MaxDP=6.25D-04 DE=-3.50D-05 OVMax= 9.40D-04

 Cycle   6  Pass 1  IDiag  1:
 E= -79.8200303211912     Delta-E=       -0.000008772484 Rises=F Damp=F
 DIIS: error= 1.31D-05 at cycle   6 NSaved=   6.
 NSaved= 6 IEnMin= 6 EnMin= -79.8200303211912     IErMin= 6 ErrMin= 1.31D-05
 ErrMax= 1.31D-05 EMaxC= 1.00D-01 BMatC= 1.62D-08 BMatP= 8.95D-06
 IDIUse=1 WtCom= 1.00D+00 WtEn= 0.00D+00
 Coeff-Com:  0.208D-03-0.635D-03 0.589D-02 0.267D-01 0.590D-01 0.909D+00
 Coeff:      0.208D-03-0.635D-03 0.589D-02 0.267D-01 0.590D-01 0.909D+00
 Gap=     0.338 Goal=   None    Shift=    0.000
 RMSDP=2.46D-06 MaxDP=3.34D-05 DE=-8.77D-06 OVMax= 5.36D-05

 Cycle   7  Pass 1  IDiag  1:
 E= -79.8200303379777     Delta-E=       -0.000000016786 Rises=F Damp=F
 DIIS: error= 4.08D-06 at cycle   7 NSaved=   7.
 NSaved= 7 IEnMin= 7 EnMin= -79.8200303379777     IErMin= 7 ErrMin= 4.08D-06
 ErrMax= 4.08D-06 EMaxC= 1.00D-01 BMatC= 1.08D-09 BMatP= 1.62D-08
 IDIUse=1 WtCom= 1.00D+00 WtEn= 0.00D+00
 Coeff-Com:  0.754D-04-0.898D-04-0.174D-02-0.594D-02-0.220D-02 0.285D+00
 Coeff-Com:  0.725D+00
 Coeff:      0.754D-04-0.898D-04-0.174D-02-0.594D-02-0.220D-02 0.285D+00
 Coeff:      0.725D+00
 Gap=     0.338 Goal=   None    Shift=    0.000
 RMSDP=7.01D-07 MaxDP=8.09D-06 DE=-1.68D-08 OVMax= 1.43D-05

 Cycle   8  Pass 1  IDiag  1:
 E= -79.8200303392508     Delta-E=       -0.000000001273 Rises=F Damp=F
 DIIS: error= 2.14D-07 at cycle   8 NSaved=   8.
 NSaved= 8 IEnMin= 8 EnMin= -79.8200303392508     IErMin= 8 ErrMin= 2.14D-07
 ErrMax= 2.14D-07 EMaxC= 1.00D-01 BMatC= 3.73D-12 BMatP= 1.08D-09
 IDIUse=1 WtCom= 1.00D+00 WtEn= 0.00D+00
 Coeff-Com: -0.181D-05 0.181D-05-0.135D-03-0.455D-03-0.690D-03 0.150D-02
 Coeff-Com:  0.479D-01 0.952D+00
 Coeff:     -0.181D-05 0.181D-05-0.135D-03-0.455D-03-0.690D-03 0.150D-02
 Coeff:      0.479D-01 0.952D+00
 Gap=     0.338 Goal=   None    Shift=    0.000
 RMSDP=4.43D-08 MaxDP=6.99D-07 DE=-1.27D-09 OVMax= 1.07D-06

 Cycle   9  Pass 1  IDiag  1:
 E= -79.8200303392560     Delta-E=       -0.000000000005 Rises=F Damp=F
 DIIS: error= 2.03D-08 at cycle   9 NSaved=   9.
 NSaved= 9 IEnMin= 9 EnMin= -79.8200303392560     IErMin= 9 ErrMin= 2.03D-08
 ErrMax= 2.03D-08 EMaxC= 1.00D-01 BMatC= 3.83D-14 BMatP= 3.73D-12
 IDIUse=1 WtCom= 1.00D+00 WtEn= 0.00D+00
 Coeff-Com: -0.857D-06 0.795D-06-0.967D-05-0.390D-04-0.947D-04-0.175D-02
 Coeff-Com:  0.231D-02 0.148D+00 0.852D+00
 Coeff:     -0.857D-06 0.795D-06-0.967D-05-0.390D-04-0.947D-04-0.175D-02
 Coeff:      0.231D-02 0.148D+00 0.852D+00
 Gap=     0.338 Goal=   None    Shift=    0.000
 RMSDP=4.08D-09 MaxDP=3.57D-08 DE=-5.29D-12 OVMax= 7.14D-08

 SCF Done:  E(RB3LYP) =  -79.8200303393     A.U. after    9 cycles
             Convg  =    0.4076D-08             -V/T =  2.0121
 KE= 7.886510131004D+01 PE=-2.669622165445D+02 EE= 6.659479550104D+01
 Leave Link  502 at Wed May 26 19:16:16 2021, MaxMem=   13107200 cpu:       6.0
 (Enter /programs/64bit/g09/g09-gfortran/bin/l601.exe)
 Copying SCF densities to generalized density rwf, IOpCl= 0 IROHF=0.

 **********************************************************************

            Population analysis using the SCF density.

 **********************************************************************

 Alpha  occ. eigenvalues --  -10.19013 -10.18259  -0.75161  -0.62020  -0.43365
 Alpha  occ. eigenvalues --   -0.43184  -0.37872  -0.34446  -0.32389
 Alpha virt. eigenvalues --    0.01427   0.02707   0.05348   0.05468   0.07965
 Alpha virt. eigenvalues --    0.08837   0.09044   0.13564   0.14518   0.18347
 Alpha virt. eigenvalues --    0.21385   0.23822   0.25633   0.28568   0.32438
 Alpha virt. eigenvalues --    0.62655   0.63972   0.65388   0.66910   0.69162
 Alpha virt. eigenvalues --    0.69835   0.88447   0.90497   0.95014   0.97271
 Alpha virt. eigenvalues --    1.03084   1.08317   1.10752   1.31913   1.34738
 Alpha virt. eigenvalues --    1.38582   1.62681   1.75237   1.80048   1.99005
 Alpha virt. eigenvalues --    2.02207   2.04902   2.10031   2.13400   2.17456
 Alpha virt. eigenvalues --    2.24451   2.27741   2.35304   2.44290   2.49449
 Alpha virt. eigenvalues --    2.66553   2.71468   2.74851   2.83820   2.86228
 Alpha virt. eigenvalues --    2.90819   3.13263   3.26107   3.35846   3.44004
 Alpha virt. eigenvalues --    3.48039   3.55336   4.32822   4.58642
          Condensed to atoms (all electrons):
              1          2          3          4          5          6
     1  C    5.148814   0.239577   0.376726   0.415581   0.399846  -0.058050
     2  C    0.239577   5.100871  -0.012787  -0.078455  -0.036510   0.412765
     3  H    0.376726  -0.012787   0.548225  -0.035008  -0.025526   0.003611
     4  H    0.415581  -0.078455  -0.035008   0.620206  -0.037680  -0.003729
     5  H    0.399846  -0.036510  -0.025526  -0.037680   0.546980  -0.007806
     6  H   -0.058050   0.412765   0.003611  -0.003729  -0.007806   0.572841
     7  H   -0.061155   0.425329  -0.000565  -0.012312   0.004324  -0.035504
     8  H   -0.021232   0.387765  -0.003006   0.005062  -0.000743  -0.027923
              7          8
     1  C   -0.061155  -0.021232
     2  C    0.425329   0.387765
     3  H   -0.000565  -0.003006
     4  H   -0.012312   0.005062
     5  H    0.004324  -0.000743
     6  H   -0.035504  -0.027923
     7  H    0.558332  -0.029374
     8  H   -0.029374   0.537286
 Mulliken atomic charges:
              1
     1  C   -0.440109
     2  C   -0.438554
     3  H    0.148329
     4  H    0.126334
     5  H    0.157115
     6  H    0.143795
     7  H    0.150924
     8  H    0.152166
 Sum of Mulliken atomic charges =  -0.00000
 Mulliken charges with hydrogens summed into heavy atoms:
              1
     1  C   -0.008331
     2  C    0.008331
 Sum of Mulliken charges with hydrogens summed into heavy atoms =  -0.00000
 Electronic spatial extent (au):  <R**2>=            150.5542
 Charge=              0.0000 electrons
 Dipole moment (field-independent basis, Debye):
    X=             -0.1344    Y=             -0.1434    Z=              0.0620  Tot=              0.2061
 Quadrupole moment (field-independent basis, Debye-Ang):
   XX=            -15.1885   YY=            -15.5464   ZZ=            -15.2610
   XY=             -0.0862   XZ=             -0.0853   YZ=             -0.1140
 Traceless Quadrupole moment (field-independent basis, Debye-Ang):
   XX=              0.1435   YY=             -0.2144   ZZ=              0.0709
   XY=             -0.0862   XZ=             -0.0853   YZ=             -0.1140
 Octapole moment (field-independent basis, Debye-Ang**2):
  XXX=              0.7776  YYY=              1.6589  ZZZ=            -35.1467  XYY=              0.5878
  XXY=              0.9763  XXZ=            -11.9485  XZZ=              0.9285  YZZ=              0.8918
  YYZ=            -10.8970  XYZ=              0.4303
 Hexadecapole moment (field-independent basis, Debye-Ang**3):
 XXXX=            -31.8357 YYYY=            -32.1790 ZZZZ=           -153.7102 XXXY=             -0.5115
 XXXZ=              0.1992 YYYX=             -0.0863 YYYZ=              0.1916 ZZZX=              2.4628
 ZZZY=              1.1284 XXYY=            -11.0301 XXZZ=            -30.2421 YYZZ=            -29.5930
 XXYZ=              0.2401 YYXZ=              1.4323 ZZXY=              0.4520
 N-N= 4.168228939413D+01 E-N=-2.669622164085D+02  KE= 7.886510131004D+01
 No NMR shielding tensors so no spin-rotation constants.
 Leave Link  601 at Wed May 26 19:16:16 2021, MaxMem=   13107200 cpu:       0.1
 (Enter /programs/64bit/g09/g09-gfortran/bin/l701.exe)
 Compute integral first derivatives.
 ... and contract with generalized density number  0.
 Leave Link  701 at Wed May 26 19:16:16 2021, MaxMem=   13107200 cpu:       0.1
 (Enter /programs/64bit/g09/g09-gfortran/bin/l702.exe)
 L702 exits ... SP integral derivatives will be done elsewhere.
 Leave Link  702 at Wed May 26 19:16:16 2021, MaxMem=   13107200 cpu:       0.0
 (Enter /programs/64bit/g09/g09-gfortran/bin/l703.exe)
 Compute integral first derivatives, UseDBF=F ICtDFT=           0.
 Integral derivatives from FoFDir, PRISM(SPDF).
 Calling FoFJK, ICntrl=      2127 FMM=F ISym2X=0 I1Cent= 0 IOpClX= 0 NMat=1 NMatS=1 NMatT=0.
 FoFCou: FMM=F IPFlag=           0 FMFlag=      100000 FMFlg1=         800
         NFxFlg=           0 DoJE=F BraDBF=F KetDBF=F FulRan=T
         Omega=  0.000000  0.000000  1.000000  0.000000  0.000000 ICntrl=    2127 IOpCl=  0
         NMat0=    1 NMatS0=    1 NMatT0=    0 NMatD0=    1 NMtDS0=    0 NMtDT0=    0
         I1Cent=           0 NGrid=           0.
 Symmetry not used in FoFCou.
 Leave Link  703 at Wed May 26 19:16:18 2021, MaxMem=   13107200 cpu:       1.4
 (Enter /programs/64bit/g09/g09-gfortran/bin/l716.exe)
 Dipole        =-5.28957666D-02-5.64170709D-02 2.44123065D-02
 -------------------------------------------------------------------
 Center     Atomic                   Forces (Hartrees/Bohr)
 Number     Number              X              Y              Z
 -------------------------------------------------------------------
      1        6          -0.000241236   -0.076305357   -0.017728460
      2        6          -0.030431290   -0.014222274   -0.015239805
      3        1          -0.011000977    0.013801390    0.024131347
      4        1           0.009572449    0.031980092    0.000205636
      5        1          -0.001120310    0.019656556   -0.000515119
      6        1           0.011437140    0.005649118    0.002145215
      7        1           0.009843553    0.000245593    0.000580832
      8        1           0.011940671    0.019194881    0.006420353
 -------------------------------------------------------------------
 Cartesian Forces:  Max     0.076305357 RMS     0.021125059
 -----------------------------------------------------------------------------------------------
                       Internal Coordinate Forces (Hartree/Bohr or radian)
  Cent   Atom   N1       Length/X         N2         Alpha/Y        N3         Beta/Z          J
 -----------------------------------------------------------------------------------------------
      1  C 
      2  C        1  -0.006093(     1)
      3  H        1  -0.023029(     2)      2  -0.028138(     8)
      4  H        1  -0.032978(     3)      2   0.011534(     9)      3   0.000609(    14)     0
      5  H        1   0.010241(     4)      2  -0.009156(    10)      3   0.029585(    15)     0
      6  H        2  -0.010608(     5)      1   0.010091(    11)      3   0.006220(    16)     0
      7  H        2   0.002953(     6)      1  -0.001014(    12)      6   0.018114(    17)     0
      8  H        2   0.022784(     7)      1  -0.011532(    13)      6  -0.000313(    18)     0
 -----------------------------------------------------------------------------------------------
 Internal  Forces:  Max     0.032977552 RMS     0.016477706
 Force constants in Cartesian coordinates: 
                1             2             3             4             5 
      1  0.631408D+00
      2 -0.513401D-01  0.496272D+00
      3 -0.374468D-02 -0.279714D-01  0.672034D+00
      4 -0.100347D+00 -0.799681D-03  0.637925D-02  0.606429D+00
      5 -0.911995D-03 -0.912338D-01  0.921610D-02  0.376841D-01  0.678327D+00
      6 -0.431320D-02 -0.315003D-02 -0.278928D+00  0.475309D-01  0.324020D-01
      7 -0.222531D+00  0.351206D-02  0.944845D-01  0.151863D-01  0.521711D-03
      8  0.135754D-01 -0.650381D-01 -0.287781D-02  0.906059D-03  0.472298D-02
      9  0.112732D+00  0.487667D-02 -0.172521D+00  0.210870D-01  0.724423D-03
     10 -0.726419D-01 -0.611299D-01 -0.814849D-02  0.613172D-03  0.991825D-03
     11 -0.567007D-01 -0.236433D+00 -0.310151D-01  0.102488D-02  0.366315D-02
     12 -0.112638D-01 -0.436739D-01 -0.665670D-01 -0.710330D-02 -0.232237D-01
     13 -0.249742D+00  0.107116D+00 -0.889706D-01  0.942785D-02 -0.337813D-02
     14  0.927366D-01 -0.123097D+00  0.526482D-01 -0.390209D-02  0.710201D-02
     15 -0.977239D-01  0.667686D-01 -0.154018D+00 -0.203629D-01  0.132832D-01
     16  0.613539D-02 -0.270752D-04  0.000000D+00 -0.302535D+00 -0.148686D-02
     17 -0.269524D-03  0.580679D-03  0.000000D+00 -0.568698D-02 -0.681933D-01
     18  0.252714D-01 -0.111522D-03  0.000000D+00  0.690297D-01 -0.612430D-02
     19  0.250451D-02 -0.269601D-02  0.000000D+00 -0.920398D-01  0.639840D-01
     20 -0.246206D-02  0.846964D-02  0.000000D+00  0.707736D-01 -0.289794D+00
     21 -0.832243D-02  0.235741D-01  0.000000D+00 -0.409762D-01  0.919022D-01
     22  0.521391D-02  0.536507D-02  0.000000D+00 -0.136734D+00 -0.974046D-01
     23  0.537231D-02  0.104795D-01  0.000000D+00 -0.999998D-01 -0.244595D+00
     24 -0.126357D-01 -0.203125D-01  0.000000D+00 -0.755844D-01 -0.118180D+00
                6             7             8             9            10 
      6  0.651250D+00
      7  0.000000D+00  0.222174D+00
      8  0.000000D+00 -0.221217D-02  0.478303D-01
      9  0.000000D+00 -0.113227D+00 -0.307171D-02  0.146496D+00
     10  0.000000D+00 -0.454034D-02 -0.250612D-01 -0.630450D-02  0.648452D-01
     11  0.000000D+00  0.766854D-03  0.438744D-02  0.106482D-02  0.596775D-01
     12  0.000000D+00  0.370570D-02  0.195492D-01  0.514555D-02  0.791410D-02
     13  0.000000D+00 -0.102895D-01  0.127913D-01 -0.142876D-01  0.117234D-01
     14  0.000000D+00 -0.258845D-02  0.807049D-02 -0.359420D-02  0.255014D-01
     15  0.000000D+00  0.150371D-01 -0.135997D-01  0.208798D-01  0.653890D-02
     16  0.566517D-01  0.000000D+00  0.000000D+00  0.000000D+00  0.000000D+00
     17 -0.503151D-02  0.000000D+00  0.646246D-03  0.000000D+00  0.487599D-03
     18 -0.859483D-01  0.000000D+00  0.000000D+00  0.000000D+00  0.000000D+00
     19 -0.342742D-01  0.000000D+00 -0.650821D-03  0.000000D+00 -0.491051D-03
     20  0.806735D-01  0.000000D+00 -0.221313D-03  0.000000D+00 -0.166983D-03
     21 -0.116260D+00  0.000000D+00  0.000000D+00  0.000000D+00  0.000000D+00
     22 -0.655952D-01  0.000000D+00  0.651381D-03  0.000000D+00  0.491474D-03
     23 -0.104894D+00  0.000000D+00 -0.398038D-03  0.000000D+00 -0.300324D-03
     24 -0.170113D+00  0.000000D+00  0.000000D+00  0.000000D+00  0.000000D+00
               11            12            13            14            15 
     11  0.238770D+00
     12  0.326193D-01  0.576035D-01
     13 -0.476843D-02  0.674728D-02  0.238880D+00
     14 -0.103815D-01  0.147291D-01 -0.111747D+00  0.118328D+00
     15 -0.266900D-02  0.381800D-02  0.965109D-01 -0.637832D-01  0.129320D+00
     16  0.000000D+00  0.000000D+00  0.000000D+00  0.000000D+00  0.000000D+00
     17 -0.150368D-03  0.000000D+00 -0.319475D-03 -0.525174D-03  0.000000D+00
     18  0.000000D+00  0.000000D+00  0.000000D+00  0.000000D+00  0.000000D+00
     19  0.151432D-03  0.000000D+00  0.321736D-03  0.528891D-03  0.000000D+00
     20  0.514950D-04  0.000000D+00  0.109407D-03  0.179851D-03  0.000000D+00
     21  0.000000D+00  0.000000D+00  0.000000D+00  0.000000D+00  0.000000D+00
     22 -0.151563D-03  0.000000D+00 -0.322013D-03 -0.529347D-03  0.000000D+00
     23  0.926151D-04  0.000000D+00  0.196772D-03  0.323467D-03  0.000000D+00
     24  0.000000D+00  0.000000D+00  0.000000D+00  0.000000D+00  0.000000D+00
               16            17            18            19            20 
     16  0.304674D+00
     17  0.847319D-03  0.535435D-01
     18 -0.602188D-01  0.349007D-02  0.712555D-01
     19 -0.341876D-02  0.310311D-01 -0.140817D-01  0.807666D-01
     20 -0.689397D-03  0.634926D-02 -0.283960D-02 -0.765294D-01  0.287173D+00
     21  0.118835D-02 -0.105557D-01  0.489476D-02  0.361483D-01 -0.877701D-01
     22 -0.485574D-02 -0.260900D-01 -0.200006D-01  0.123567D-01  0.896483D-02
     23  0.135601D-02  0.774919D-02  0.558534D-02 -0.158192D-01 -0.122081D-01
     24  0.237878D-02  0.120972D-01  0.979807D-02  0.122076D-01  0.993627D-02
               21            22            23            24 
     21  0.968364D-01
     22  0.119620D-01  0.123850D+00
     23 -0.171504D-01  0.109194D+00  0.238556D+00
     24  0.145291D-01  0.736337D-01  0.116459D+00  0.145786D+00
 Force constants in internal coordinates: 
                1             2             3             4             5 
      1  0.278928D+00
      2  0.000000D+00  0.303718D+00
      3  0.000000D+00  0.000000D+00  0.262748D+00
      4  0.000000D+00  0.000000D+00  0.000000D+00  0.362793D+00
      5  0.000000D+00  0.000000D+00  0.000000D+00  0.000000D+00  0.319294D+00
      6  0.000000D+00  0.000000D+00  0.000000D+00  0.000000D+00  0.000000D+00
      7  0.000000D+00  0.000000D+00  0.000000D+00  0.000000D+00  0.000000D+00
      8  0.000000D+00  0.000000D+00  0.000000D+00  0.000000D+00  0.000000D+00
      9  0.000000D+00  0.000000D+00  0.000000D+00  0.000000D+00  0.000000D+00
     10  0.000000D+00  0.000000D+00  0.000000D+00  0.000000D+00  0.000000D+00
     11  0.000000D+00  0.000000D+00  0.000000D+00  0.000000D+00  0.000000D+00
     12  0.000000D+00  0.000000D+00  0.000000D+00  0.000000D+00  0.000000D+00
     13  0.000000D+00  0.000000D+00  0.000000D+00  0.000000D+00  0.000000D+00
     14  0.000000D+00  0.000000D+00  0.000000D+00  0.000000D+00  0.000000D+00
     15  0.000000D+00  0.000000D+00  0.000000D+00  0.000000D+00  0.000000D+00
     16  0.000000D+00  0.000000D+00  0.000000D+00  0.000000D+00  0.000000D+00
     17  0.000000D+00  0.000000D+00  0.000000D+00  0.000000D+00  0.000000D+00
     18  0.000000D+00  0.000000D+00  0.000000D+00  0.000000D+00  0.000000D+00
                6             7             8             9            10 
      6  0.348144D+00
      7  0.000000D+00  0.384160D+00
      8  0.000000D+00  0.000000D+00  0.297255D+00
      9  0.000000D+00  0.000000D+00  0.306201D-01  0.258719D+00
     10  0.000000D+00  0.000000D+00  0.125088D+00  0.195842D-01  0.298934D+00
     11  0.000000D+00  0.000000D+00  0.000000D+00  0.000000D+00  0.000000D+00
     12  0.000000D+00  0.000000D+00  0.000000D+00  0.000000D+00  0.000000D+00
     13  0.000000D+00  0.000000D+00  0.000000D+00  0.000000D+00  0.000000D+00
     14  0.000000D+00  0.000000D+00 -0.367382D-01 -0.101732D-01  0.351484D-01
     15  0.000000D+00  0.000000D+00  0.504999D-01 -0.662838D-01  0.179760D-01
     16  0.000000D+00  0.000000D+00  0.000000D+00  0.000000D+00  0.000000D+00
     17  0.000000D+00  0.000000D+00  0.000000D+00  0.000000D+00  0.000000D+00
     18  0.000000D+00  0.000000D+00  0.000000D+00  0.000000D+00  0.000000D+00
               11            12            13            14            15 
     11  0.252083D+00
     12  0.233920D-01  0.259330D+00
     13  0.492519D-01  0.740510D-01  0.265881D+00
     14  0.000000D+00  0.000000D+00  0.000000D+00  0.223993D+00
     15  0.000000D+00  0.000000D+00  0.000000D+00 -0.120316D+00  0.172046D+00
     16  0.135931D-03 -0.212040D-03 -0.393516D-04  0.690000D-02  0.690000D-02
     17 -0.596112D-01  0.253129D-01  0.658526D-01  0.230000D-02  0.230000D-02
     18  0.752813D-01 -0.731628D-01 -0.846783D-02  0.230000D-02  0.230000D-02
               16            17            18 
     16  0.208285D-01
     17  0.741916D-02  0.206198D+00
     18  0.611634D-02 -0.746115D-01  0.174323D+00
 Leave Link  716 at Wed May 26 19:16:18 2021, MaxMem=   13107200 cpu:       0.0
 (Enter /programs/64bit/g09/g09-gfortran/bin/l103.exe)

 GradGradGradGradGradGradGradGradGradGradGradGradGradGradGradGradGradGrad
 Berny optimization.
 Search for a local minimum.
 Step number   1 out of a maximum of    2
 All quantities printed in internal units (Hartrees-Bohrs-Radians)
 Second derivative matrix not updated -- first step.
 The second derivative matrix:
                          d1        a1        t1        d2        a2
           d1           0.27893
           a1           0.00000   0.29726
           t1          -0.00000  -0.03674   0.22399
           d2           0.00000  -0.00000  -0.00000   0.30372
           a2          -0.00000   0.03062  -0.01017   0.00000   0.25872
           t2          -0.00000   0.05050  -0.12032   0.00000  -0.06628
           d3           0.00000  -0.00000   0.00000   0.00000  -0.00000
           d4           0.00000  -0.00000  -0.00000   0.00000  -0.00000
           a3          -0.00000   0.12509   0.03515   0.00000   0.01958
           d5          -0.00000   0.00000   0.00000   0.00000   0.00000
           a4          -0.00000   0.00000  -0.00000   0.00000  -0.00000
           t3          -0.00000   0.00000   0.00690   0.00000   0.00000
           d6          -0.00000   0.00000   0.00000   0.00000   0.00000
           a5           0.00000   0.00000  -0.00000   0.00000  -0.00000
           t4          -0.00000   0.00000   0.00230   0.00000   0.00000
           d7          -0.00000   0.00000   0.00000   0.00000  -0.00000
           a6          -0.00000   0.00000  -0.00000   0.00000   0.00000
           t5          -0.00000   0.00000   0.00230   0.00000  -0.00000
                          t2        d3        d4        a3        d5
           t2           0.17205
           d3          -0.00000   0.26275
           d4           0.00000   0.00000   0.36279
           a3           0.01798   0.00000   0.00000   0.29893
           d5           0.00000   0.00000  -0.00000  -0.00000   0.31929
           a4          -0.00000  -0.00000   0.00000  -0.00000   0.00000
           t3           0.00690   0.00000  -0.00000   0.00000  -0.00000
           d6           0.00000   0.00000  -0.00000   0.00000   0.00000
           a5          -0.00000  -0.00000   0.00000  -0.00000  -0.00000
           t4           0.00230   0.00000  -0.00000   0.00000  -0.00000
           d7          -0.00000   0.00000  -0.00000   0.00000   0.00000
           a6           0.00000  -0.00000   0.00000  -0.00000  -0.00000
           t5           0.00230   0.00000   0.00000  -0.00000  -0.00000
                          a4        t3        d6        a5        t4
           a4           0.25208
           t3           0.00014   0.02083
           d6          -0.00000  -0.00000   0.34814
           a5           0.02339  -0.00021  -0.00000   0.25933
           t4          -0.05961   0.00742  -0.00000   0.02531   0.20620
           d7          -0.00000   0.00000   0.00000   0.00000   0.00000
           a6           0.04925  -0.00004  -0.00000   0.07405   0.06585
           t5           0.07528   0.00612  -0.00000  -0.07316  -0.07461
                          d7        a6        t5
           d7           0.38416
           a6          -0.00000   0.26588
           t5           0.00000  -0.00847   0.17432
     Eigenvalues --- 1000.000001000.000001000.000001000.000001000.00000
     Eigenvalues --- 1000.000001000.000001000.000001000.000001000.00000
     Eigenvalues --- 1000.000001000.000001000.000001000.000001000.00000
     Eigenvalues --- 1000.000001000.000001000.00000
 Angle between quadratic step and forces=  90.00 degrees.
 Linear search not attempted -- first point.
 Variable       Old X    -DE/DX   Delta X   Delta X   Delta X     New X
                                 (Linear)    (Quad)   (Total)
    d1        2.92374  -0.00609   0.00000   0.00000   0.00000   2.92374
    a1        2.19493  -0.02814   0.00000   0.00000   0.00000   2.19493
    t1        1.86993   0.00061   0.00000   0.00000   0.00000   1.86993
    d2        2.13928  -0.02303   0.00000   0.00000   0.00000   2.13928
    a2        1.73268   0.01153   0.00000   0.00000   0.00000   1.73268
    t2       -2.59508   0.02959   0.00000   0.00000   0.00000  -2.59508
    d3        2.22773  -0.03298   0.00000   0.00000   0.00000   2.22773
    d4        2.03647   0.01024   0.00000   0.00000   0.00000   2.03647
    a3        2.03055  -0.00916   0.00000   0.00000   0.00000   2.03055
    d5        2.10973  -0.01061   0.00000   0.00000   0.00000   2.10973
    a4        1.80897   0.01009   0.00000   0.00000   0.00000   1.80897
    t3        3.14159   0.00622   0.00000   0.00000   0.00000   3.14159
    d6        2.05977   0.00295   0.00000   0.00000   0.00000   2.05977
    a5        1.93129  -0.00101   0.00000   0.00000   0.00000   1.93129
    t4        1.89858   0.01811   0.00000   0.00000   0.00000   1.89858
    d7        2.00464   0.02278   0.00000   0.00000   0.00000   2.00464
    a6        2.09485  -0.01153   0.00000   0.00000   0.00000   2.09485
    t5       -2.11931  -0.00031   0.00000   0.00000   0.00000  -2.11931
         Item               Value     Threshold  Converged?
 Maximum Force            0.000000     0.000450     YES
 RMS     Force            0.000000     0.000300     YES
 Maximum Displacement     0.000000     0.001800     YES
 RMS     Displacement     0.000000     0.001200     YES
 Predicted change in Energy=-0.000000D+00
 Optimization completed.
    -- Stationary point found.
                       ----------------------------
                       !   Optimized Parameters   !
                       ! (Angstroms and Degrees)  !
 ----------------------                            ----------------------
 !      Name          Value   Derivative information (Atomic Units)     !
 ------------------------------------------------------------------------
 !       d1          1.5472   -DE/DX =   -0.0061                        !
 !       a1        125.7605   -DE/DX =   -0.0281                        !
 !       t1        107.1389   -DE/DX =    0.0006                        !
 !       d2          1.1321   -DE/DX =   -0.023                         !
 !       a2         99.2753   -DE/DX =    0.0115                        !
 !       t2       -148.6869   -DE/DX =    0.0296                        !
 !       d3          1.1789   -DE/DX =   -0.033                         !
 !       d4          1.0777   -DE/DX =    0.0102                        !
 !       a3        116.342    -DE/DX =   -0.0092                        !
 !       d5          1.1164   -DE/DX =   -0.0106                        !
 !       a4        103.6462   -DE/DX =    0.0101                        !
 !       t3        180.0      -DE/DX =    0.0062                        !
 !       d6          1.09     -DE/DX =    0.003                         !
 !       a5        110.6548   -DE/DX =   -0.001                         !
 !       t4        108.7808   -DE/DX =    0.0181                        !
 !       d7          1.0608   -DE/DX =    0.0228                        !
 !       a6        120.0258   -DE/DX =   -0.0115                        !
 !       t5       -121.4278   -DE/DX =   -0.0003                        !
 ------------------------------------------------------------------------
 GradGradGradGradGradGradGradGradGradGradGradGradGradGradGradGradGradGrad

 Leave Link  103 at Wed May 26 19:16:18 2021, MaxMem=   13107200 cpu:       0.0
 (Enter /programs/64bit/g09/g09-gfortran/bin/l9999.exe)
 1\1\GINC-MOLMOD\Force\RB3LYP\6-31+G(d,p)\C2H6\OSPITE\26-May-2021\1\\#p
  b3lyp/6-31+g(d,p) force nosym\\c2h6 molecule\\0,1\C\C,1,d1\H,1,d2,2,a
 1\H,1,d3,2,a2,3,t1,0\H,1,d4,2,a3,3,t2,0\H,2,d5,1,a4,3,t3,0\H,2,d6,1,a5
 ,6,t4,0\H,2,d7,1,a6,6,t5,0\\d1=1.54717401\a1=125.76047417\t1=107.13892
 601\d2=1.1320592\a2=99.27531086\t2=-148.68692672\d3=1.17886285\d4=1.07
 765409\a3=116.34197724\d5=1.11642227\a4=103.64624603\t3=180.\d6=1.0899
 8484\a5=110.65483419\t4=108.78075348\d7=1.06081092\a6=120.02578972\t5=
 -121.42775931\\Version=EM64L-G09RevA.02\HF=-79.8200303\RMSD=4.076e-09\
 RMSF=2.113e-02\Dipole=-0.0528958,-0.0564171,0.0244123\Quadrupole=0.106
 6576,-0.1594056,0.052748,-0.0641108,-0.0634126,-0.0847528\PG=C01 [X(C2
 H6)]\\@


 HO!  SUCH BUGS AND GOBLINS IN MY LIFE!

                            -- HAMLET, ACT 5, SCENE 2
 Job cpu time:  0 days  0 hours  0 minutes  8.6 seconds.
 File lengths (MBytes):  RWF=      5 Int=      0 D2E=      0 Chk=      1 Scr=      1
 Normal termination of Gaussian 09 at Wed May 26 19:16:18 2021.
