 Entering Gaussian System, Link 0=g09
 Input=c2h6_036.com
 Output=c2h6_036.log
 Initial command:
 /programs/64bit/g09/g09-gfortran/bin/l1.exe /data/scratch/Gau-6759.inp -scrdir=/data/scratch/
 Entering Link 1 = /programs/64bit/g09/g09-gfortran/bin/l1.exe PID=      6760.
  
 Copyright (c) 1988,1990,1992,1993,1995,1998,2003,2009, Gaussian, Inc.
                  All Rights Reserved.
  
 This is part of the Gaussian(R) 09 program.  It is based on
 the Gaussian(R) 03 system (copyright 2003, Gaussian, Inc.),
 the Gaussian(R) 98 system (copyright 1998, Gaussian, Inc.),
 the Gaussian(R) 94 system (copyright 1995, Gaussian, Inc.),
 the Gaussian 92(TM) system (copyright 1992, Gaussian, Inc.),
 the Gaussian 90(TM) system (copyright 1990, Gaussian, Inc.),
 the Gaussian 88(TM) system (copyright 1988, Gaussian, Inc.),
 the Gaussian 86(TM) system (copyright 1986, Carnegie Mellon
 University), and the Gaussian 82(TM) system (copyright 1983,
 Carnegie Mellon University). Gaussian is a federally registered
 trademark of Gaussian, Inc.
  
 This software contains proprietary and confidential information,
 including trade secrets, belonging to Gaussian, Inc.
  
 This software is provided under written license and may be
 used, copied, transmitted, or stored only in accord with that
 written license.
  
 The following legend is applicable only to US Government
 contracts under FAR:
  
                    RESTRICTED RIGHTS LEGEND
  
 Use, reproduction and disclosure by the US Government is
 subject to restrictions as set forth in subparagraphs (a)
 and (c) of the Commercial Computer Software - Restricted
 Rights clause in FAR 52.227-19.
  
 Gaussian, Inc.
 340 Quinnipiac St., Bldg. 40, Wallingford CT 06492
  
  
 ---------------------------------------------------------------
 Warning -- This program may not be used in any manner that
 competes with the business of Gaussian, Inc. or will provide
 assistance to any competitor of Gaussian, Inc.  The licensee
 of this program is prohibited from giving any competitor of
 Gaussian, Inc. access to this program.  By using this program,
 the user acknowledges that Gaussian, Inc. is engaged in the
 business of creating and licensing software in the field of
 computational chemistry and represents and warrants to the
 licensee that it is not a competitor of Gaussian, Inc. and that
 it will not use this program in any manner prohibited above.
 ---------------------------------------------------------------
  

 Cite this work as:
 Gaussian 09, Revision A.02,
 M. J. Frisch, G. W. Trucks, H. B. Schlegel, G. E. Scuseria, 
 M. A. Robb, J. R. Cheeseman, G. Scalmani, V. Barone, B. Mennucci, 
 G. A. Petersson, H. Nakatsuji, M. Caricato, X. Li, H. P. Hratchian, 
 A. F. Izmaylov, J. Bloino, G. Zheng, J. L. Sonnenberg, M. Hada, 
 M. Ehara, K. Toyota, R. Fukuda, J. Hasegawa, M. Ishida, T. Nakajima, 
 Y. Honda, O. Kitao, H. Nakai, T. Vreven, J. A. Montgomery, Jr., 
 J. E. Peralta, F. Ogliaro, M. Bearpark, J. J. Heyd, E. Brothers, 
 K. N. Kudin, V. N. Staroverov, R. Kobayashi, J. Normand, 
 K. Raghavachari, A. Rendell, J. C. Burant, S. S. Iyengar, J. Tomasi, 
 M. Cossi, N. Rega, J. M. Millam, M. Klene, J. E. Knox, J. B. Cross, 
 V. Bakken, C. Adamo, J. Jaramillo, R. Gomperts, R. E. Stratmann, 
 O. Yazyev, A. J. Austin, R. Cammi, C. Pomelli, J. W. Ochterski, 
 R. L. Martin, K. Morokuma, V. G. Zakrzewski, G. A. Voth, 
 P. Salvador, J. J. Dannenberg, S. Dapprich, A. D. Daniels, 
 O. Farkas, J. B. Foresman, J. V. Ortiz, J. Cioslowski, 
 and D. J. Fox, Gaussian, Inc., Wallingford CT, 2009.
 
 ******************************************
 Gaussian 09:  EM64L-G09RevA.02 11-Jun-2009
                26-May-2021 
 ******************************************
 %chk=c2h6_036.chk
 %mem=100MB
 --------------------------------
 #p b3lyp/6-31+g(d,p) force nosym
 --------------------------------
 1/10=7,30=1,38=1/1,3;
 2/12=2,15=1,17=6,18=5,40=1/2;
 3/5=1,6=6,7=111,11=2,16=1,25=1,30=1,71=1,74=-5/1,2,3;
 4//1;
 5/5=2,38=5/2;
 6/7=2,8=2,9=2,10=2,28=1/1;
 7/29=1,30=1/1,2,3,16;
 1/10=7,30=1/3;
 99//99;
 Leave Link    1 at Wed May 26 19:13:46 2021, MaxMem=   13107200 cpu:       0.0
 (Enter /programs/64bit/g09/g09-gfortran/bin/l101.exe)
 -------------
 c2h6 molecule
 -------------
 Symbolic Z-matrix:
 Charge =  0 Multiplicity = 1
 C1
 C2                   1    d1
 H3                   1    d2       2    a1
 H4                   1    d3       2    a2       3    t1       0
 H5                   1    d4       2    a3       3    t2       0
 H6                   2    d5       1    a4       3    t3       0
 H7                   2    d6       1    a5       6    t4       0
 H8                   2    d7       1    a6       6    t5       0
       Variables:
       Constants:
  d1                    1.56496                  
  a1                  150.7227                   
  t1                  100.90531                  
  d2                    1.08865                  
  a2                   90.31873                  
  t2                 -158.64676                  
  d3                    1.06307                  
  d4                    1.08668                  
  a3                   90.73628                  
  d5                    1.08807                  
  a4                   92.69656                  
  t3                  179.79602                  
  d6                    1.09875                  
  a5                   93.41604                  
  t4                  120.49687                  
  d7                    1.09765                  
  a6                  154.46427                  
  t5                 -119.99702                  
 
 NAtoms=      8 NQM=      8 NQMF=      0 NMic=      0 NMicF=      0 NTot=      8.
                    Isotopes and Nuclear Properties:
 (Nuclear quadrupole moments (NQMom) in fm**2, nuclear magnetic moments (NMagM)
  in nuclear magnetons)

  Atom         1           2           3           4           5           6           7           8
 IAtWgt=          12          12           1           1           1           1           1           1
 AtmWgt=  12.0000000  12.0000000   1.0078250   1.0078250   1.0078250   1.0078250   1.0078250   1.0078250
 NucSpn=           0           0           1           1           1           1           1           1
 AtZEff=   0.0000000   0.0000000   0.0000000   0.0000000   0.0000000   0.0000000   0.0000000   0.0000000
 NQMom=    0.0000000   0.0000000   0.0000000   0.0000000   0.0000000   0.0000000   0.0000000   0.0000000
 NMagM=    0.0000000   0.0000000   2.7928460   2.7928460   2.7928460   2.7928460   2.7928460   2.7928460
 Leave Link  101 at Wed May 26 19:13:46 2021, MaxMem=   13107200 cpu:       0.0
 (Enter /programs/64bit/g09/g09-gfortran/bin/l103.exe)

 GradGradGradGradGradGradGradGradGradGradGradGradGradGradGradGradGradGrad
 Berny optimization.
 Initialization pass.
                       ----------------------------
                       !    Initial Parameters    !
                       ! (Angstroms and Degrees)  !
 ----------------------                            ----------------------
 !      Name          Value   Derivative information (Atomic Units)     !
 ------------------------------------------------------------------------
 !       d1          1.565    Frozen                                    !
 !       a1        150.7227   Frozen                                    !
 !       t1        100.9053   Frozen                                    !
 !       d2          1.0886   Frozen                                    !
 !       a2         90.3187   Frozen                                    !
 !       t2       -158.6468   Frozen                                    !
 !       d3          1.0631   Frozen                                    !
 !       d4          1.0867   Frozen                                    !
 !       a3         90.7363   Frozen                                    !
 !       d5          1.0881   Frozen                                    !
 !       a4         92.6966   Frozen                                    !
 !       t3        179.796    Frozen                                    !
 !       d6          1.0987   Frozen                                    !
 !       a5         93.416    Frozen                                    !
 !       t4        120.4969   Frozen                                    !
 !       d7          1.0976   Frozen                                    !
 !       a6        154.4643   Frozen                                    !
 !       t5       -119.997    Frozen                                    !
 ------------------------------------------------------------------------
 Trust Radius=3.00D-01 FncErr=1.00D-07 GrdErr=1.00D-07
 Number of steps in this run=   2 maximum allowed number of steps=   2.
 GradGradGradGradGradGradGradGradGradGradGradGradGradGradGradGradGradGrad

 Leave Link  103 at Wed May 26 19:13:46 2021, MaxMem=   13107200 cpu:       0.0
 (Enter /programs/64bit/g09/g09-gfortran/bin/l202.exe)
                          Input orientation:                          
 ---------------------------------------------------------------------
 Center     Atomic      Atomic             Coordinates (Angstroms)
 Number     Number       Type             X           Y           Z
 ---------------------------------------------------------------------
      1          6           0        0.000000    0.000000    0.000000
      2          6           0        0.000000    0.000000    1.564964
      3          1           0        0.532388    0.000000   -0.949585
      4          1           0       -0.201115   -1.043853   -0.005914
      5          1           0       -1.012001    0.395646   -0.013964
      6          1           0       -1.086853    0.003869    1.616154
      7          1           0        0.553247   -0.947038    1.630434
      8          1           0        0.238020    0.408942    2.555389
 ---------------------------------------------------------------------
                    Distance matrix (angstroms):
                    1          2          3          4          5
     1  C    0.000000
     2  C    1.564964   0.000000
     3  H    1.088645   2.570290   0.000000
     4  H    1.063066   1.896769   1.586874   0.000000
     5  H    1.086681   1.916688   1.848529   1.652198   0.000000
     6  H    1.947618   1.088065   3.033969   2.124466   1.678206
     7  H    1.965013   1.098749   2.748420   1.804457   2.637583
     8  H    2.598826   1.097647   3.541006   2.977200   2.857324
                    6          7          8
     6  H    0.000000
     7  H    1.895879   0.000000
     8  H    1.673779   1.671404   0.000000
 Symmetry turned off by external request.
 Stoichiometry    C2H6
 Framework group  C1[X(C2H6)]
 Deg. of freedom    18
 Full point group                 C1      NOp   1
 Rotational constants (GHZ):     98.0490831     19.8731822     18.7909161
 Leave Link  202 at Wed May 26 19:13:46 2021, MaxMem=   13107200 cpu:       0.0
 (Enter /programs/64bit/g09/g09-gfortran/bin/l301.exe)
 Standard basis: 6-31+G(d,p) (6D, 7F)
 Ernie: Thresh=  0.10000D-02 Tol=  0.10000D-05 Strict=F.
 Integral buffers will be    131072 words long.
 Raffenetti 2 integral format.
 Two-electron integral symmetry is turned off.
    68 basis functions,   106 primitive gaussians,    68 cartesian basis functions
     9 alpha electrons        9 beta electrons
       nuclear repulsion energy        42.5215483750 Hartrees.
 IExCor=  402 DFT=T Ex+Corr=B3LYP ExCW=0 ScaHFX=  0.200000
 ScaDFX=  0.800000  0.720000  1.000000  0.810000 ScalE2=  1.000000  1.000000
 IRadAn=      0 IRanWt=     -1 IRanGd=            0 ICorTp=0
 NAtoms=    8 NActive=    8 NUniq=    8 SFac= 7.50D-01 NAtFMM=   80 NAOKFM=F Big=F
 Leave Link  301 at Wed May 26 19:13:46 2021, MaxMem=   13107200 cpu:       0.0
 (Enter /programs/64bit/g09/g09-gfortran/bin/l302.exe)
 NPDir=0 NMtPBC=     1 NCelOv=     1 NCel=       1 NClECP=     1 NCelD=      1
         NCelK=      1 NCelE2=     1 NClLst=     1 CellRange=     0.0.
 One-electron integrals computed using PRISM.
 NBasis=    68 RedAO= T  NBF=    68
 NBsUse=    68 1.00D-06 NBFU=    68
 Precomputing XC quadrature grid using
 IXCGrd= 2 IRadAn=           0 IRanWt=          -1 IRanGd=           0 AccXCQ= 1.00D-10.
 NRdTot=     510 NPtTot=       65100 NUsed=       68787 NTot=       68819
 NSgBfM=    68    68    68    68    68 NAtAll=     8     8.
 Leave Link  302 at Wed May 26 19:13:46 2021, MaxMem=   13107200 cpu:       0.1
 (Enter /programs/64bit/g09/g09-gfortran/bin/l303.exe)
 DipDrv:  MaxL=1.
 Leave Link  303 at Wed May 26 19:13:46 2021, MaxMem=   13107200 cpu:       0.0
 (Enter /programs/64bit/g09/g09-gfortran/bin/l401.exe)
 Harris functional with IExCor=  402 diagonalized for initial guess.
 ExpMin= 4.38D-02 ExpMax= 3.05D+03 ExpMxC= 4.57D+02 IAcc=2 IRadAn=         0 AccDes= 0.00D+00
 HarFok:  IExCor=  402 AccDes= 0.00D+00 IRadAn=         0 IDoV= 1
 ScaDFX=  1.000000  1.000000  1.000000  1.000000
 FoFCou: FMM=F IPFlag=           0 FMFlag=      100000 FMFlg1=           0
         NFxFlg=           0 DoJE=T BraDBF=F KetDBF=T FulRan=T
         Omega=  0.000000  0.000000  1.000000  0.000000  0.000000 ICntrl=     500 IOpCl=  0
         NMat0=    1 NMatS0=    1 NMatT0=    0 NMatD0=    1 NMtDS0=    0 NMtDT0=    0
         I1Cent=           4 NGrid=           0.
 Symmetry not used in FoFCou.
 Harris En= -79.7856348143449    
 Leave Link  401 at Wed May 26 19:13:48 2021, MaxMem=   13107200 cpu:       1.0
 (Enter /programs/64bit/g09/g09-gfortran/bin/l502.exe)
 Closed shell SCF:
 Requested convergence on RMS density matrix=1.00D-08 within 128 cycles.
 Requested convergence on MAX density matrix=1.00D-06.
 Requested convergence on             energy=1.00D-06.
 No special actions if energy rises.
 Using DIIS extrapolation, IDIIS=  1040.
 Two-electron integral symmetry not used.
        68702 words used for storage of precomputed grid.
 Keep R1 ints in memory in canonical form, NReq=3743087.
 IEnd=      101552 IEndB=      101552 NGot=    13107200 MDV=    10273922
 LenX=    10273922 LenY=    10268857
 Symmetry not used in FoFDir.
 MinBra= 0 MaxBra= 2 Meth= 1.
 IRaf=       0 NMat=   1 IRICut=       1 DoRegI=T DoRafI=F ISym2E= 0 JSym2E=0.

 Cycle   1  Pass 1  IDiag  1:
 E= -79.5996435387039    
 DIIS: error= 3.78D-02 at cycle   1 NSaved=   1.
 NSaved= 1 IEnMin= 1 EnMin= -79.5996435387039     IErMin= 1 ErrMin= 3.78D-02
 ErrMax= 3.78D-02 EMaxC= 1.00D-01 BMatC= 1.14D-01 BMatP= 1.14D-01
 IDIUse=3 WtCom= 6.22D-01 WtEn= 3.78D-01
 Coeff-Com:  0.100D+01
 Coeff-En:   0.100D+01
 Coeff:      0.100D+01
 Gap=     0.330 Goal=   None    Shift=    0.000
 GapD=    0.330 DampG=1.000 DampE=0.500 DampFc=0.5000 IDamp=-1.
 Damping current iteration by 5.00D-01
 RMSDP=1.45D-02 MaxDP=1.63D-01              OVMax= 2.22D-01

 Cycle   2  Pass 1  IDiag  1:
 E= -79.6513194756909     Delta-E=       -0.051675936987 Rises=F Damp=T
 DIIS: error= 1.05D-02 at cycle   2 NSaved=   2.
 NSaved= 2 IEnMin= 2 EnMin= -79.6513194756909     IErMin= 2 ErrMin= 1.05D-02
 ErrMax= 1.05D-02 EMaxC= 1.00D-01 BMatC= 5.28D-03 BMatP= 1.14D-01
 IDIUse=3 WtCom= 8.95D-01 WtEn= 1.05D-01
 Coeff-Com:  0.119D+00 0.881D+00
 Coeff-En:   0.206D+00 0.794D+00
 Coeff:      0.128D+00 0.872D+00
 Gap=     0.304 Goal=   None    Shift=    0.000
 RMSDP=3.35D-03 MaxDP=6.44D-02 DE=-5.17D-02 OVMax= 1.25D-01

 Cycle   3  Pass 1  IDiag  1:
 E= -79.7278253564883     Delta-E=       -0.076505880797 Rises=F Damp=F
 DIIS: error= 2.16D-03 at cycle   3 NSaved=   3.
 NSaved= 3 IEnMin= 3 EnMin= -79.7278253564883     IErMin= 3 ErrMin= 2.16D-03
 ErrMax= 2.16D-03 EMaxC= 1.00D-01 BMatC= 3.20D-04 BMatP= 5.28D-03
 IDIUse=3 WtCom= 9.78D-01 WtEn= 2.16D-02
 Coeff-Com:  0.108D-01 0.171D+00 0.818D+00
 Coeff-En:   0.000D+00 0.000D+00 0.100D+01
 Coeff:      0.106D-01 0.167D+00 0.822D+00
 Gap=     0.298 Goal=   None    Shift=    0.000
 RMSDP=5.27D-04 MaxDP=5.91D-03 DE=-7.65D-02 OVMax= 5.71D-03

 Cycle   4  Pass 1  IDiag  1:
 E= -79.7281278545307     Delta-E=       -0.000302498042 Rises=F Damp=F
 DIIS: error= 4.83D-04 at cycle   4 NSaved=   4.
 NSaved= 4 IEnMin= 4 EnMin= -79.7281278545307     IErMin= 4 ErrMin= 4.83D-04
 ErrMax= 4.83D-04 EMaxC= 1.00D-01 BMatC= 1.53D-05 BMatP= 3.20D-04
 IDIUse=3 WtCom= 9.95D-01 WtEn= 4.83D-03
 Coeff-Com: -0.830D-03-0.237D-02 0.169D+00 0.834D+00
 Coeff-En:   0.000D+00 0.000D+00 0.000D+00 0.100D+01
 Coeff:     -0.826D-03-0.236D-02 0.169D+00 0.835D+00
 Gap=     0.298 Goal=   None    Shift=    0.000
 RMSDP=1.40D-04 MaxDP=1.82D-03 DE=-3.02D-04 OVMax= 1.40D-03

 Cycle   5  Pass 1  IDiag  1:
 E= -79.7281419832729     Delta-E=       -0.000014128742 Rises=F Damp=F
 DIIS: error= 1.41D-04 at cycle   5 NSaved=   5.
 NSaved= 5 IEnMin= 5 EnMin= -79.7281419832729     IErMin= 5 ErrMin= 1.41D-04
 ErrMax= 1.41D-04 EMaxC= 1.00D-01 BMatC= 1.51D-06 BMatP= 1.53D-05
 IDIUse=3 WtCom= 9.99D-01 WtEn= 1.41D-03
 Coeff-Com: -0.254D-03-0.270D-02 0.758D-01 0.413D+00 0.515D+00
 Coeff-En:   0.000D+00 0.000D+00 0.000D+00 0.000D+00 0.100D+01
 Coeff:     -0.254D-03-0.270D-02 0.756D-01 0.412D+00 0.515D+00
 Gap=     0.298 Goal=   None    Shift=    0.000
 RMSDP=2.03D-05 MaxDP=2.76D-04 DE=-1.41D-05 OVMax= 4.17D-04

 Cycle   6  Pass 1  IDiag  1:
 E= -79.7281434727650     Delta-E=       -0.000001489492 Rises=F Damp=F
 DIIS: error= 2.87D-05 at cycle   6 NSaved=   6.
 NSaved= 6 IEnMin= 6 EnMin= -79.7281434727650     IErMin= 6 ErrMin= 2.87D-05
 ErrMax= 2.87D-05 EMaxC= 1.00D-01 BMatC= 6.85D-08 BMatP= 1.51D-06
 IDIUse=1 WtCom= 1.00D+00 WtEn= 0.00D+00
 Coeff-Com:  0.157D-03-0.790D-03 0.105D-01 0.654D-01 0.198D+00 0.727D+00
 Coeff:      0.157D-03-0.790D-03 0.105D-01 0.654D-01 0.198D+00 0.727D+00
 Gap=     0.298 Goal=   None    Shift=    0.000
 RMSDP=4.25D-06 MaxDP=6.03D-05 DE=-1.49D-06 OVMax= 9.25D-05

 Cycle   7  Pass 1  IDiag  1:
 E= -79.7281435407121     Delta-E=       -0.000000067947 Rises=F Damp=F
 DIIS: error= 3.97D-06 at cycle   7 NSaved=   7.
 NSaved= 7 IEnMin= 7 EnMin= -79.7281435407121     IErMin= 7 ErrMin= 3.97D-06
 ErrMax= 3.97D-06 EMaxC= 1.00D-01 BMatC= 1.50D-09 BMatP= 6.85D-08
 IDIUse=1 WtCom= 1.00D+00 WtEn= 0.00D+00
 Coeff-Com:  0.811D-04-0.127D-03-0.103D-02-0.290D-02 0.315D-01 0.195D+00
 Coeff-Com:  0.777D+00
 Coeff:      0.811D-04-0.127D-03-0.103D-02-0.290D-02 0.315D-01 0.195D+00
 Coeff:      0.777D+00
 Gap=     0.298 Goal=   None    Shift=    0.000
 RMSDP=1.26D-06 MaxDP=1.32D-05 DE=-6.79D-08 OVMax= 1.53D-05

 Cycle   8  Pass 1  IDiag  1:
 E= -79.7281435423819     Delta-E=       -0.000000001670 Rises=F Damp=F
 DIIS: error= 4.53D-07 at cycle   8 NSaved=   8.
 NSaved= 8 IEnMin= 8 EnMin= -79.7281435423819     IErMin= 8 ErrMin= 4.53D-07
 ErrMax= 4.53D-07 EMaxC= 1.00D-01 BMatC= 1.85D-11 BMatP= 1.50D-09
 IDIUse=1 WtCom= 1.00D+00 WtEn= 0.00D+00
 Coeff-Com:  0.740D-05-0.475D-05-0.363D-03-0.164D-02 0.108D-02 0.132D-01
 Coeff-Com:  0.128D+00 0.859D+00
 Coeff:      0.740D-05-0.475D-05-0.363D-03-0.164D-02 0.108D-02 0.132D-01
 Coeff:      0.128D+00 0.859D+00
 Gap=     0.298 Goal=   None    Shift=    0.000
 RMSDP=1.42D-07 MaxDP=1.85D-06 DE=-1.67D-09 OVMax= 2.00D-06

 Cycle   9  Pass 1  IDiag  1:
 E= -79.7281435424040     Delta-E=       -0.000000000022 Rises=F Damp=F
 DIIS: error= 1.06D-07 at cycle   9 NSaved=   9.
 NSaved= 9 IEnMin= 9 EnMin= -79.7281435424040     IErMin= 9 ErrMin= 1.06D-07
 ErrMax= 1.06D-07 EMaxC= 1.00D-01 BMatC= 1.00D-12 BMatP= 1.85D-11
 IDIUse=1 WtCom= 1.00D+00 WtEn= 0.00D+00
 Coeff-Com: -0.124D-05 0.196D-05-0.468D-04-0.225D-03-0.535D-03-0.257D-02
 Coeff-Com:  0.819D-02 0.212D+00 0.784D+00
 Coeff:     -0.124D-05 0.196D-05-0.468D-04-0.225D-03-0.535D-03-0.257D-02
 Coeff:      0.819D-02 0.212D+00 0.784D+00
 Gap=     0.298 Goal=   None    Shift=    0.000
 RMSDP=3.16D-08 MaxDP=4.04D-07 DE=-2.22D-11 OVMax= 4.66D-07

 Cycle  10  Pass 1  IDiag  1:
 E= -79.7281435424050     Delta-E=       -0.000000000001 Rises=F Damp=F
 DIIS: error= 1.84D-08 at cycle  10 NSaved=  10.
 NSaved=10 IEnMin=10 EnMin= -79.7281435424050     IErMin=10 ErrMin= 1.84D-08
 ErrMax= 1.84D-08 EMaxC= 1.00D-01 BMatC= 2.76D-14 BMatP= 1.00D-12
 IDIUse=1 WtCom= 1.00D+00 WtEn= 0.00D+00
 Coeff-Com: -0.604D-06 0.634D-06-0.464D-05-0.237D-04-0.206D-03-0.116D-02
 Coeff-Com: -0.166D-02 0.296D-01 0.196D+00 0.777D+00
 Coeff:     -0.604D-06 0.634D-06-0.464D-05-0.237D-04-0.206D-03-0.116D-02
 Coeff:     -0.166D-02 0.296D-01 0.196D+00 0.777D+00
 Gap=     0.298 Goal=   None    Shift=    0.000
 RMSDP=4.99D-09 MaxDP=5.05D-08 DE=-9.95D-13 OVMax= 7.15D-08

 SCF Done:  E(RB3LYP) =  -79.7281435424     A.U. after   10 cycles
             Convg  =    0.4992D-08             -V/T =  2.0080
 KE= 7.909570717405D+01 PE=-2.686037659801D+02 EE= 6.725836688870D+01
 Leave Link  502 at Wed May 26 19:13:55 2021, MaxMem=   13107200 cpu:       7.5
 (Enter /programs/64bit/g09/g09-gfortran/bin/l601.exe)
 Copying SCF densities to generalized density rwf, IOpCl= 0 IROHF=0.

 **********************************************************************

            Population analysis using the SCF density.

 **********************************************************************

 Alpha  occ. eigenvalues --  -10.19056 -10.18508  -0.77924  -0.62485  -0.47808
 Alpha  occ. eigenvalues --   -0.44137  -0.37052  -0.32849  -0.28968
 Alpha virt. eigenvalues --    0.00858   0.01824   0.04884   0.05582   0.06735
 Alpha virt. eigenvalues --    0.08655   0.08872   0.12086   0.14668   0.16349
 Alpha virt. eigenvalues --    0.20039   0.21628   0.26241   0.31176   0.35260
 Alpha virt. eigenvalues --    0.64404   0.64962   0.65644   0.69628   0.72128
 Alpha virt. eigenvalues --    0.75254   0.88760   0.89461   0.93865   0.98855
 Alpha virt. eigenvalues --    1.04087   1.06707   1.08825   1.22191   1.29542
 Alpha virt. eigenvalues --    1.46619   1.51478   1.74289   1.83412   1.96273
 Alpha virt. eigenvalues --    2.02108   2.08113   2.13870   2.16985   2.21065
 Alpha virt. eigenvalues --    2.23903   2.28303   2.34797   2.44298   2.59771
 Alpha virt. eigenvalues --    2.67261   2.70334   2.76379   2.78936   2.91035
 Alpha virt. eigenvalues --    2.96135   3.22851   3.30118   3.38585   3.44265
 Alpha virt. eigenvalues --    3.54786   3.74058   4.30220   4.80909
          Condensed to atoms (all electrons):
              1          2          3          4          5          6
     1  C    5.282825   0.096498   0.347996   0.464475   0.446573  -0.113523
     2  C    0.096498   5.251736   0.023850  -0.116434  -0.097981   0.466475
     3  H    0.347996   0.023850   0.540340  -0.052450  -0.019114   0.005308
     4  H    0.464475  -0.116434  -0.052450   0.634293  -0.042447  -0.009333
     5  H    0.446573  -0.097981  -0.019114  -0.042447   0.584086  -0.024127
     6  H   -0.113523   0.466475   0.005308  -0.009333  -0.024127   0.606604
     7  H   -0.119089   0.461354   0.002757  -0.035538   0.008778  -0.015430
     8  H    0.048164   0.327208  -0.001319   0.006094   0.000387  -0.047638
              7          8
     1  C   -0.119089   0.048164
     2  C    0.461354   0.327208
     3  H    0.002757  -0.001319
     4  H   -0.035538   0.006094
     5  H    0.008778   0.000387
     6  H   -0.015430  -0.047638
     7  H    0.605856  -0.043343
     8  H   -0.043343   0.557960
 Mulliken atomic charges:
              1
     1  C   -0.453920
     2  C   -0.412707
     3  H    0.152632
     4  H    0.151340
     5  H    0.143847
     6  H    0.131665
     7  H    0.134655
     8  H    0.152487
 Sum of Mulliken atomic charges =   0.00000
 Mulliken charges with hydrogens summed into heavy atoms:
              1
     1  C   -0.006101
     2  C    0.006101
 Sum of Mulliken charges with hydrogens summed into heavy atoms =   0.00000
 Electronic spatial extent (au):  <R**2>=            150.9435
 Charge=              0.0000 electrons
 Dipole moment (field-independent basis, Debye):
    X=             -0.2652    Y=             -0.5109    Z=             -0.0288  Tot=              0.5764
 Quadrupole moment (field-independent basis, Debye-Ang):
   XX=            -15.3461   YY=            -16.1721   ZZ=            -14.9253
   XY=             -0.8753   XZ=             -0.6232   YZ=              0.2941
 Traceless Quadrupole moment (field-independent basis, Debye-Ang):
   XX=              0.1350   YY=             -0.6909   ZZ=              0.5559
   XY=             -0.8753   XZ=             -0.6232   YZ=              0.2941
 Octapole moment (field-independent basis, Debye-Ang**2):
  XXX=              1.2022  YYY=              1.7715  ZZZ=            -35.3641  XYY=              0.9277
  XXY=              0.9323  XXZ=            -11.9918  XZZ=              1.1842  YZZ=              1.4578
  YYZ=            -13.2577  XYZ=             -0.9193
 Hexadecapole moment (field-independent basis, Debye-Ang**3):
 XXXX=            -30.6211 YYYY=            -29.8720 ZZZZ=           -148.7227 XXXY=              0.0477
 XXXZ=              0.2670 YYYX=              0.3613 YYYZ=              1.1772 ZZZX=              1.6089
 ZZZY=              4.4521 XXYY=            -10.3368 XXZZ=            -32.1748 YYZZ=            -34.3745
 XXYZ=              0.5805 YYXZ=              0.7298 ZZXY=             -1.0694
 N-N= 4.252154837499D+01 E-N=-2.686037657410D+02  KE= 7.909570717405D+01
 No NMR shielding tensors so no spin-rotation constants.
 Leave Link  601 at Wed May 26 19:13:55 2021, MaxMem=   13107200 cpu:       0.1
 (Enter /programs/64bit/g09/g09-gfortran/bin/l701.exe)
 Compute integral first derivatives.
 ... and contract with generalized density number  0.
 Leave Link  701 at Wed May 26 19:13:55 2021, MaxMem=   13107200 cpu:       0.1
 (Enter /programs/64bit/g09/g09-gfortran/bin/l702.exe)
 L702 exits ... SP integral derivatives will be done elsewhere.
 Leave Link  702 at Wed May 26 19:13:55 2021, MaxMem=   13107200 cpu:       0.0
 (Enter /programs/64bit/g09/g09-gfortran/bin/l703.exe)
 Compute integral first derivatives, UseDBF=F ICtDFT=           0.
 Integral derivatives from FoFDir, PRISM(SPDF).
 Calling FoFJK, ICntrl=      2127 FMM=F ISym2X=0 I1Cent= 0 IOpClX= 0 NMat=1 NMatS=1 NMatT=0.
 FoFCou: FMM=F IPFlag=           0 FMFlag=      100000 FMFlg1=         800
         NFxFlg=           0 DoJE=F BraDBF=F KetDBF=F FulRan=T
         Omega=  0.000000  0.000000  1.000000  0.000000  0.000000 ICntrl=    2127 IOpCl=  0
         NMat0=    1 NMatS0=    1 NMatT0=    0 NMatD0=    1 NMtDS0=    0 NMtDT0=    0
         I1Cent=           0 NGrid=           0.
 Symmetry not used in FoFCou.
 Leave Link  703 at Wed May 26 19:13:57 2021, MaxMem=   13107200 cpu:       1.7
 (Enter /programs/64bit/g09/g09-gfortran/bin/l716.exe)
 Dipole        =-1.04342121D-01-2.01013864D-01-1.13363553D-02
 -------------------------------------------------------------------
 Center     Atomic                   Forces (Hartrees/Bohr)
 Number     Number              X              Y              Z
 -------------------------------------------------------------------
      1        6          -0.043039411    0.004291034   -0.003685678
      2        6           0.023742667   -0.033378203    0.021379513
      3        1           0.025849956    0.033285261    0.009927044
      4        1          -0.012001851   -0.022863976   -0.012847875
      5        1           0.001584151    0.012291788   -0.043724658
      6        1          -0.000641672   -0.023970211    0.020440385
      7        1          -0.018643907   -0.009097150    0.026776611
      8        1           0.023150067    0.039441459   -0.018265341
 -------------------------------------------------------------------
 Cartesian Forces:  Max     0.043724658 RMS     0.023590775
 -----------------------------------------------------------------------------------------------
                       Internal Coordinate Forces (Hartree/Bohr or radian)
  Cent   Atom   N1       Length/X         N2         Alpha/Y        N3         Beta/Z          J
 -----------------------------------------------------------------------------------------------
      1  C 
      2  C        1   0.050331(     1)
      3  H        1   0.003983(     2)      2  -0.056374(     8)
      4  H        1   0.024793(     3)      2   0.025533(     9)      3   0.014985(    14)     0
      5  H        1   0.003562(     4)      2   0.089703(    10)      3   0.024691(    15)     0
      6  H        2   0.001517(     5)      1   0.041928(    11)      3   0.006210(    16)     0
      7  H        2   0.000049(     6)      1   0.055690(    12)      6  -0.042877(    17)     0
      8  H        2   0.003233(     7)      1  -0.101928(    13)      6  -0.000150(    18)     0
 -----------------------------------------------------------------------------------------------
 Internal  Forces:  Max     0.101927770 RMS     0.042834120
 Force constants in Cartesian coordinates: 
                1             2             3             4             5 
      1  0.668127D+00
      2 -0.344471D-01  0.628769D+00
      3 -0.111377D+00 -0.529560D-02  0.732424D+00
      4 -0.115689D+00 -0.400240D-02  0.149519D-01  0.678278D+00
      5 -0.613784D-02 -0.106025D+00  0.163764D-01 -0.793987D-01  0.571136D+00
      6 -0.610331D-02 -0.102231D-01 -0.264171D+00  0.452793D-01  0.735238D-01
      7 -0.163628D+00  0.874669D-02  0.822251D-01  0.251633D-01  0.588269D-03
      8  0.218375D-01 -0.855026D-01 -0.152541D-01 -0.192889D-02  0.122110D-01
      9  0.104320D+00  0.490386D-02 -0.303597D+00  0.141079D-01  0.329815D-03
     10 -0.817112D-01 -0.757375D-01  0.144006D-01  0.999322D-03 -0.384603D-03
     11 -0.577793D-01 -0.366546D+00 -0.451806D-02 -0.166270D-03  0.225245D-03
     12  0.136612D-01 -0.115683D-01 -0.734434D-01 -0.463615D-02 -0.266791D-01
     13 -0.325381D+00  0.982839D-01 -0.200353D-03  0.142919D-02  0.188396D-02
     14  0.678292D-01 -0.100173D+00  0.869143D-02  0.279364D-02  0.517086D-02
     15 -0.660408D-02  0.119600D-01 -0.912118D-01 -0.244236D-01  0.997296D-02
     16  0.123989D-02 -0.216367D-04  0.000000D+00 -0.349319D+00  0.600163D-03
     17 -0.114799D-02  0.284899D-02  0.000000D+00 -0.155614D-01 -0.786377D-01
     18  0.264119D-01 -0.674741D-03  0.000000D+00  0.235371D-01 -0.779758D-02
     19  0.401739D-02  0.146094D-02  0.000000D+00 -0.136496D+00  0.996135D-01
     20  0.140038D-02  0.239358D-02  0.000000D+00  0.116466D+00 -0.278727D+00
     21 -0.136917D-01  0.222783D-01  0.000000D+00 -0.198394D-01  0.186394D-01
     22  0.130238D-01  0.571710D-02  0.000000D+00 -0.104365D+00 -0.167647D-01
     23  0.844511D-02  0.242349D-01  0.000000D+00 -0.182021D-01 -0.125353D+00
     24 -0.661683D-02 -0.113804D-01  0.000000D+00 -0.489770D-01 -0.843656D-01
                6             7             8             9            10 
      6  0.724012D+00
      7  0.000000D+00  0.140019D+00
      8  0.000000D+00 -0.593475D-02  0.592381D-01
      9  0.000000D+00 -0.117557D+00 -0.332733D-02  0.283788D+00
     10  0.000000D+00  0.161100D-03 -0.197971D-01  0.903213D-04  0.660649D-01
     11  0.000000D+00 -0.626779D-04  0.362668D-02 -0.351405D-04  0.608003D-01
     12  0.000000D+00  0.558478D-02  0.331035D-01  0.313112D-02 -0.148157D-01
     13  0.000000D+00 -0.171528D-02  0.456196D-02 -0.961676D-03  0.138657D-01
     14  0.000000D+00 -0.333753D-02  0.111562D-01 -0.187120D-02  0.354776D-01
     15  0.000000D+00  0.297468D-01 -0.145221D-01  0.166776D-01  0.324758D-03
     16  0.127434D-01  0.000000D+00  0.396275D-05  0.000000D+00  0.194875D-05
     17 -0.646241D-02  0.000000D+00  0.111308D-02  0.000000D+00  0.547376D-03
     18 -0.793182D-01  0.000000D+00  0.000000D+00  0.000000D+00  0.000000D+00
     19 -0.132036D-01  0.000000D+00 -0.952396D-03  0.000000D+00 -0.468357D-03
     20  0.102685D-01  0.000000D+00 -0.556376D-03  0.000000D+00 -0.273608D-03
     21 -0.780969D-01  0.000000D+00  0.000000D+00  0.000000D+00  0.000000D+00
     22 -0.387158D-01  0.000000D+00  0.220971D-02  0.000000D+00  0.108666D-02
     23 -0.671068D-01  0.000000D+00 -0.128613D-02  0.000000D+00 -0.632479D-03
     24 -0.302425D+00  0.000000D+00  0.000000D+00  0.000000D+00  0.000000D+00
               11            12            13            14            15 
     11  0.369463D+00
     12  0.461597D-02  0.702764D-01
     13 -0.267260D-02  0.205900D-03  0.312026D+00
     14 -0.683831D-02  0.527925D-03 -0.102187D+00  0.903513D-01
     15 -0.627728D-04  0.358380D-04  0.956129D-03 -0.734816D-02  0.744984D-01
     16  0.000000D+00  0.000000D+00  0.000000D+00 -0.180831D-05  0.000000D+00
     17 -0.105461D-03  0.000000D+00 -0.198577D-03 -0.507927D-03  0.000000D+00
     18  0.000000D+00  0.000000D+00  0.000000D+00  0.000000D+00  0.000000D+00
     19  0.902364D-04  0.000000D+00  0.169910D-03  0.434604D-03  0.000000D+00
     20  0.527148D-04  0.000000D+00  0.992592D-04  0.253889D-03  0.000000D+00
     21  0.000000D+00  0.000000D+00  0.000000D+00  0.000000D+00  0.000000D+00
     22 -0.209363D-03  0.000000D+00 -0.394219D-03 -0.100835D-02  0.000000D+00
     23  0.121857D-03  0.000000D+00  0.229450D-03  0.586897D-03  0.000000D+00
     24  0.000000D+00  0.000000D+00  0.000000D+00  0.000000D+00  0.000000D+00
               16            17            18            19            20 
     16  0.349752D+00
     17 -0.655053D-03  0.503812D-01
     18 -0.131061D-01  0.876805D-02  0.714429D-01
     19 -0.339539D-04  0.322652D-01 -0.315981D-02  0.122218D+00
     20 -0.193337D-04  0.186158D-01 -0.181764D-02 -0.125095D+00  0.264483D+00
     21  0.725680D-05 -0.337246D-02  0.408997D-03  0.156814D-01 -0.935741D-02
     22 -0.164073D-02 -0.152496D-01 -0.336831D-01  0.105932D-01  0.742190D-02
     23  0.940814D-04  0.629209D-02  0.152191D-02 -0.781739D-02 -0.651547D-02
     24  0.355456D-03  0.106682D-02  0.746636D-02  0.681990D-03  0.906571D-03
               21            22            23            24 
     21  0.703372D-01
     22  0.178425D-01  0.816967D-01
     23 -0.281878D-01  0.178833D-01  0.101919D+00
     24  0.735070D-02  0.545564D-01  0.937726D-01  0.287608D+00
 Force constants in internal coordinates: 
                1             2             3             4             5 
      1  0.264171D+00
      2  0.000000D+00  0.349697D+00
      3  0.000000D+00  0.000000D+00  0.381203D+00
      4  0.000000D+00  0.000000D+00  0.000000D+00  0.351990D+00
      5  0.000000D+00  0.000000D+00  0.000000D+00  0.000000D+00  0.350372D+00
      6  0.000000D+00  0.000000D+00  0.000000D+00  0.000000D+00  0.000000D+00
      7  0.000000D+00  0.000000D+00  0.000000D+00  0.000000D+00  0.000000D+00
      8  0.000000D+00  0.000000D+00  0.000000D+00  0.000000D+00  0.000000D+00
      9  0.000000D+00  0.000000D+00  0.000000D+00  0.000000D+00  0.000000D+00
     10  0.000000D+00  0.000000D+00  0.000000D+00  0.000000D+00  0.000000D+00
     11  0.000000D+00  0.000000D+00  0.000000D+00  0.000000D+00  0.000000D+00
     12  0.000000D+00  0.000000D+00  0.000000D+00  0.000000D+00  0.000000D+00
     13  0.000000D+00  0.000000D+00  0.000000D+00  0.000000D+00  0.000000D+00
     14  0.000000D+00  0.000000D+00  0.000000D+00  0.000000D+00  0.000000D+00
     15  0.000000D+00  0.000000D+00  0.000000D+00  0.000000D+00  0.000000D+00
     16  0.000000D+00  0.000000D+00  0.000000D+00  0.000000D+00  0.000000D+00
     17  0.000000D+00  0.000000D+00  0.000000D+00  0.000000D+00  0.000000D+00
     18  0.000000D+00  0.000000D+00  0.000000D+00  0.000000D+00  0.000000D+00
                6             7             8             9            10 
      6  0.338209D+00
      7  0.000000D+00  0.339437D+00
      8  0.000000D+00  0.000000D+00  0.313652D+00
      9  0.000000D+00  0.000000D+00  0.264612D-01  0.283576D+00
     10  0.000000D+00  0.000000D+00  0.144084D+00  0.147859D-03  0.313965D+00
     11  0.000000D+00  0.000000D+00  0.000000D+00  0.000000D+00  0.000000D+00
     12  0.000000D+00  0.000000D+00  0.000000D+00  0.000000D+00  0.000000D+00
     13  0.000000D+00  0.000000D+00  0.000000D+00  0.000000D+00  0.000000D+00
     14  0.000000D+00  0.000000D+00  0.805681D-03 -0.622363D-01  0.136463D-02
     15  0.000000D+00  0.000000D+00  0.180783D-01 -0.233750D-02  0.273918D-01
     16  0.000000D+00  0.000000D+00  0.000000D+00  0.000000D+00  0.000000D+00
     17  0.000000D+00  0.000000D+00  0.000000D+00  0.000000D+00  0.000000D+00
     18  0.000000D+00  0.000000D+00  0.000000D+00  0.000000D+00  0.000000D+00
               11            12            13            14            15 
     11  0.299425D+00
     12  0.175116D-02  0.299120D+00
     13  0.739526D-01  0.735712D-01  0.260397D+00
     14  0.000000D+00  0.000000D+00  0.000000D+00  0.219270D+00
     15  0.000000D+00  0.000000D+00  0.000000D+00 -0.160015D+00  0.212641D+00
     16  0.256632D-02 -0.261989D-02 -0.374597D-04  0.690000D-02  0.690000D-02
     17 -0.155519D-01  0.380252D-01  0.104336D-01  0.230000D-02  0.230000D-02
     18  0.549897D-01 -0.550524D-01  0.846259D-04  0.230000D-02  0.230000D-02
               16            17            18 
     16  0.447185D-01
     17  0.238441D-01  0.212417D+00
     18 -0.305348D-02 -0.300037D-01  0.569766D-01
 Leave Link  716 at Wed May 26 19:13:57 2021, MaxMem=   13107200 cpu:       0.0
 (Enter /programs/64bit/g09/g09-gfortran/bin/l103.exe)

 GradGradGradGradGradGradGradGradGradGradGradGradGradGradGradGradGradGrad
 Berny optimization.
 Search for a local minimum.
 Step number   1 out of a maximum of    2
 All quantities printed in internal units (Hartrees-Bohrs-Radians)
 Second derivative matrix not updated -- first step.
 The second derivative matrix:
                          d1        a1        t1        d2        a2
           d1           0.26417
           a1           0.00000   0.31365
           t1           0.00000   0.00081   0.21927
           d2           0.00000  -0.00000  -0.00000   0.34970
           a2          -0.00000   0.02646  -0.06224  -0.00000   0.28358
           t2           0.00000   0.01808  -0.16001  -0.00000  -0.00234
           d3           0.00000  -0.00000  -0.00000  -0.00000   0.00000
           d4           0.00000   0.00000  -0.00000  -0.00000   0.00000
           a3          -0.00000   0.14408   0.00136  -0.00000   0.00015
           d5           0.00000   0.00000  -0.00000   0.00000  -0.00000
           a4           0.00000   0.00000  -0.00000   0.00000   0.00000
           t3          -0.00000   0.00000   0.00690   0.00000   0.00000
           d6           0.00000   0.00000   0.00000   0.00000  -0.00000
           a5           0.00000   0.00000  -0.00000   0.00000   0.00000
           t4           0.00000   0.00000   0.00230   0.00000   0.00000
           d7           0.00000   0.00000  -0.00000   0.00000  -0.00000
           a6           0.00000   0.00000   0.00000   0.00000   0.00000
           t5          -0.00000   0.00000   0.00230   0.00000   0.00000
                          t2        d3        d4        a3        d5
           t2           0.21264
           d3           0.00000   0.38120
           d4           0.00000  -0.00000   0.35199
           a3           0.02739  -0.00000   0.00000   0.31397
           d5          -0.00000   0.00000  -0.00000   0.00000   0.35037
           a4           0.00000  -0.00000   0.00000  -0.00000   0.00000
           t3           0.00690  -0.00000   0.00000  -0.00000   0.00000
           d6           0.00000   0.00000   0.00000  -0.00000   0.00000
           a5          -0.00000  -0.00000  -0.00000   0.00000   0.00000
           t4           0.00230   0.00000   0.00000  -0.00000  -0.00000
           d7          -0.00000   0.00000   0.00000   0.00000  -0.00000
           a6           0.00000   0.00000   0.00000  -0.00000  -0.00000
           t5           0.00230   0.00000   0.00000  -0.00000  -0.00000
                          a4        t3        d6        a5        t4
           a4           0.29943
           t3           0.00257   0.04472
           d6           0.00000   0.00000   0.33821
           a5           0.00175  -0.00262   0.00000   0.29912
           t4          -0.01555   0.02384   0.00000   0.03803   0.21242
           d7           0.00000  -0.00000  -0.00000   0.00000  -0.00000
           a6           0.07395  -0.00004   0.00000   0.07357   0.01043
           t5           0.05499  -0.00305   0.00000  -0.05505  -0.03000
                          d7        a6        t5
           d7           0.33944
           a6          -0.00000   0.26040
           t5          -0.00000   0.00008   0.05698
     Eigenvalues --- 1000.000001000.000001000.000001000.000001000.00000
     Eigenvalues --- 1000.000001000.000001000.000001000.000001000.00000
     Eigenvalues --- 1000.000001000.000001000.000001000.000001000.00000
     Eigenvalues --- 1000.000001000.000001000.00000
 Angle between quadratic step and forces=  90.00 degrees.
 Linear search not attempted -- first point.
 Variable       Old X    -DE/DX   Delta X   Delta X   Delta X     New X
                                 (Linear)    (Quad)   (Total)
    d1        2.95735   0.05033   0.00000   0.00000   0.00000   2.95735
    a1        2.63061  -0.05637   0.00000   0.00000   0.00000   2.63061
    t1        1.76113   0.01499   0.00000   0.00000   0.00000   1.76113
    d2        2.05724   0.00398   0.00000   0.00000   0.00000   2.05724
    a2        1.57636   0.02553   0.00000   0.00000   0.00000   1.57636
    t2       -2.76891   0.02469   0.00000   0.00000   0.00000  -2.76891
    d3        2.00890   0.02479   0.00000   0.00000   0.00000   2.00890
    d4        2.05353   0.00356   0.00000   0.00000   0.00000   2.05353
    a3        1.58365   0.08970   0.00000   0.00000   0.00000   1.58365
    d5        2.05615   0.00152   0.00000   0.00000   0.00000   2.05615
    a4        1.61786   0.04193   0.00000   0.00000   0.00000   1.61786
    t3        3.13803   0.00621   0.00000   0.00000   0.00000   3.13803
    d6        2.07633   0.00005   0.00000   0.00000   0.00000   2.07633
    a5        1.63042   0.05569   0.00000   0.00000   0.00000   1.63042
    t4        2.10307  -0.04288   0.00000   0.00000   0.00000   2.10307
    d7        2.07425   0.00323   0.00000   0.00000   0.00000   2.07425
    a6        2.69591  -0.10193   0.00000   0.00000   0.00000   2.69591
    t5       -2.09434  -0.00015   0.00000   0.00000   0.00000  -2.09434
         Item               Value     Threshold  Converged?
 Maximum Force            0.000000     0.000450     YES
 RMS     Force            0.000000     0.000300     YES
 Maximum Displacement     0.000000     0.001800     YES
 RMS     Displacement     0.000000     0.001200     YES
 Predicted change in Energy=-0.000000D+00
 Optimization completed.
    -- Stationary point found.
                       ----------------------------
                       !   Optimized Parameters   !
                       ! (Angstroms and Degrees)  !
 ----------------------                            ----------------------
 !      Name          Value   Derivative information (Atomic Units)     !
 ------------------------------------------------------------------------
 !       d1          1.565    -DE/DX =    0.0503                        !
 !       a1        150.7227   -DE/DX =   -0.0564                        !
 !       t1        100.9053   -DE/DX =    0.015                         !
 !       d2          1.0886   -DE/DX =    0.004                         !
 !       a2         90.3187   -DE/DX =    0.0255                        !
 !       t2       -158.6468   -DE/DX =    0.0247                        !
 !       d3          1.0631   -DE/DX =    0.0248                        !
 !       d4          1.0867   -DE/DX =    0.0036                        !
 !       a3         90.7363   -DE/DX =    0.0897                        !
 !       d5          1.0881   -DE/DX =    0.0015                        !
 !       a4         92.6966   -DE/DX =    0.0419                        !
 !       t3        179.796    -DE/DX =    0.0062                        !
 !       d6          1.0987   -DE/DX =    0.0                           !
 !       a5         93.416    -DE/DX =    0.0557                        !
 !       t4        120.4969   -DE/DX =   -0.0429                        !
 !       d7          1.0976   -DE/DX =    0.0032                        !
 !       a6        154.4643   -DE/DX =   -0.1019                        !
 !       t5       -119.997    -DE/DX =   -0.0001                        !
 ------------------------------------------------------------------------
 GradGradGradGradGradGradGradGradGradGradGradGradGradGradGradGradGradGrad

 Leave Link  103 at Wed May 26 19:13:57 2021, MaxMem=   13107200 cpu:       0.0
 (Enter /programs/64bit/g09/g09-gfortran/bin/l9999.exe)
 1\1\GINC-MOLMOD\Force\RB3LYP\6-31+G(d,p)\C2H6\OSPITE\26-May-2021\1\\#p
  b3lyp/6-31+g(d,p) force nosym\\c2h6 molecule\\0,1\C\C,1,d1\H,1,d2,2,a
 1\H,1,d3,2,a2,3,t1,0\H,1,d4,2,a3,3,t2,0\H,2,d5,1,a4,3,t3,0\H,2,d6,1,a5
 ,6,t4,0\H,2,d7,1,a6,6,t5,0\\d1=1.56496381\a1=150.72270142\t1=100.90530
 788\d2=1.08864501\a2=90.31873228\t2=-158.64676053\d3=1.06306643\d4=1.0
 8668141\a3=90.73627609\d5=1.08806515\a4=92.69656489\t3=179.79601793\d6
 =1.09874883\a5=93.41603954\t4=120.49686538\d7=1.09764655\a6=154.464265
 3\t5=-119.99702103\\Version=EM64L-G09RevA.02\HF=-79.7281435\RMSD=4.992
 e-09\RMSF=2.359e-02\Dipole=-0.1043421,-0.2010139,-0.0113364\Quadrupole
 =0.1003879,-0.5136734,0.4132855,-0.6507946,-0.4632992,0.2186248\PG=C01
  [X(C2H6)]\\@


 BLACK HOLES SUCK.
 Job cpu time:  0 days  0 hours  0 minutes 10.7 seconds.
 File lengths (MBytes):  RWF=      5 Int=      0 D2E=      0 Chk=      1 Scr=      1
 Normal termination of Gaussian 09 at Wed May 26 19:13:57 2021.
