 Entering Gaussian System, Link 0=g09
 Input=c2h6_001.com
 Output=c2h6_001.log
 Initial command:
 /programs/64bit/g09/g09-gfortran/bin/l1.exe /data/scratch/Gau-5842.inp -scrdir=/data/scratch/
 Entering Link 1 = /programs/64bit/g09/g09-gfortran/bin/l1.exe PID=      5843.
  
 Copyright (c) 1988,1990,1992,1993,1995,1998,2003,2009, Gaussian, Inc.
                  All Rights Reserved.
  
 This is part of the Gaussian(R) 09 program.  It is based on
 the Gaussian(R) 03 system (copyright 2003, Gaussian, Inc.),
 the Gaussian(R) 98 system (copyright 1998, Gaussian, Inc.),
 the Gaussian(R) 94 system (copyright 1995, Gaussian, Inc.),
 the Gaussian 92(TM) system (copyright 1992, Gaussian, Inc.),
 the Gaussian 90(TM) system (copyright 1990, Gaussian, Inc.),
 the Gaussian 88(TM) system (copyright 1988, Gaussian, Inc.),
 the Gaussian 86(TM) system (copyright 1986, Carnegie Mellon
 University), and the Gaussian 82(TM) system (copyright 1983,
 Carnegie Mellon University). Gaussian is a federally registered
 trademark of Gaussian, Inc.
  
 This software contains proprietary and confidential information,
 including trade secrets, belonging to Gaussian, Inc.
  
 This software is provided under written license and may be
 used, copied, transmitted, or stored only in accord with that
 written license.
  
 The following legend is applicable only to US Government
 contracts under FAR:
  
                    RESTRICTED RIGHTS LEGEND
  
 Use, reproduction and disclosure by the US Government is
 subject to restrictions as set forth in subparagraphs (a)
 and (c) of the Commercial Computer Software - Restricted
 Rights clause in FAR 52.227-19.
  
 Gaussian, Inc.
 340 Quinnipiac St., Bldg. 40, Wallingford CT 06492
  
  
 ---------------------------------------------------------------
 Warning -- This program may not be used in any manner that
 competes with the business of Gaussian, Inc. or will provide
 assistance to any competitor of Gaussian, Inc.  The licensee
 of this program is prohibited from giving any competitor of
 Gaussian, Inc. access to this program.  By using this program,
 the user acknowledges that Gaussian, Inc. is engaged in the
 business of creating and licensing software in the field of
 computational chemistry and represents and warrants to the
 licensee that it is not a competitor of Gaussian, Inc. and that
 it will not use this program in any manner prohibited above.
 ---------------------------------------------------------------
  

 Cite this work as:
 Gaussian 09, Revision A.02,
 M. J. Frisch, G. W. Trucks, H. B. Schlegel, G. E. Scuseria, 
 M. A. Robb, J. R. Cheeseman, G. Scalmani, V. Barone, B. Mennucci, 
 G. A. Petersson, H. Nakatsuji, M. Caricato, X. Li, H. P. Hratchian, 
 A. F. Izmaylov, J. Bloino, G. Zheng, J. L. Sonnenberg, M. Hada, 
 M. Ehara, K. Toyota, R. Fukuda, J. Hasegawa, M. Ishida, T. Nakajima, 
 Y. Honda, O. Kitao, H. Nakai, T. Vreven, J. A. Montgomery, Jr., 
 J. E. Peralta, F. Ogliaro, M. Bearpark, J. J. Heyd, E. Brothers, 
 K. N. Kudin, V. N. Staroverov, R. Kobayashi, J. Normand, 
 K. Raghavachari, A. Rendell, J. C. Burant, S. S. Iyengar, J. Tomasi, 
 M. Cossi, N. Rega, J. M. Millam, M. Klene, J. E. Knox, J. B. Cross, 
 V. Bakken, C. Adamo, J. Jaramillo, R. Gomperts, R. E. Stratmann, 
 O. Yazyev, A. J. Austin, R. Cammi, C. Pomelli, J. W. Ochterski, 
 R. L. Martin, K. Morokuma, V. G. Zakrzewski, G. A. Voth, 
 P. Salvador, J. J. Dannenberg, S. Dapprich, A. D. Daniels, 
 O. Farkas, J. B. Foresman, J. V. Ortiz, J. Cioslowski, 
 and D. J. Fox, Gaussian, Inc., Wallingford CT, 2009.
 
 ******************************************
 Gaussian 09:  EM64L-G09RevA.02 11-Jun-2009
                26-May-2021 
 ******************************************
 %chk=c2h6_001.chk
 %mem=100MB
 --------------------------------
 #p b3lyp/6-31+g(d,p) force nosym
 --------------------------------
 1/10=7,30=1,38=1/1,3;
 2/12=2,15=1,17=6,18=5,40=1/2;
 3/5=1,6=6,7=111,11=2,16=1,25=1,30=1,71=1,74=-5/1,2,3;
 4//1;
 5/5=2,38=5/2;
 6/7=2,8=2,9=2,10=2,28=1/1;
 7/29=1,30=1/1,2,3,16;
 1/10=7,30=1/3;
 99//99;
 Leave Link    1 at Wed May 26 19:07:21 2021, MaxMem=   13107200 cpu:       0.0
 (Enter /programs/64bit/g09/g09-gfortran/bin/l101.exe)
 -------------
 c2h6 molecule
 -------------
 Symbolic Z-matrix:
 Charge =  0 Multiplicity = 1
 C1
 C2                   1    d1
 H3                   1    d2       2    a1
 H4                   1    d3       2    a2       3    t1       0
 H5                   1    d4       2    a3       3    t2       0
 H6                   2    d5       1    a4       3    t3       0
 H7                   2    d6       1    a5       6    t4       0
 H8                   2    d7       1    a6       6    t5       0
       Variables:
       Constants:
  d1                    1.                       
  a1                  179.                       
  t1                  120.                       
  d2                    1.03                     
  a2                  110.                       
  t2                 -179.                       
  d3                    1.05                     
  d4                    1.1                      
  a3                  109.                       
  d5                    1.03                     
  a4                  109.                       
  t3                  180.                       
  d6                    1.05                     
  a5                  109.                       
  t4                  120.                       
  d7                    1.1                      
  a6                  179.                       
  t5                 -120.                       
 
 NAtoms=      8 NQM=      8 NQMF=      0 NMic=      0 NMicF=      0 NTot=      8.
                    Isotopes and Nuclear Properties:
 (Nuclear quadrupole moments (NQMom) in fm**2, nuclear magnetic moments (NMagM)
  in nuclear magnetons)

  Atom         1           2           3           4           5           6           7           8
 IAtWgt=          12          12           1           1           1           1           1           1
 AtmWgt=  12.0000000  12.0000000   1.0078250   1.0078250   1.0078250   1.0078250   1.0078250   1.0078250
 NucSpn=           0           0           1           1           1           1           1           1
 AtZEff=   0.0000000   0.0000000   0.0000000   0.0000000   0.0000000   0.0000000   0.0000000   0.0000000
 NQMom=    0.0000000   0.0000000   0.0000000   0.0000000   0.0000000   0.0000000   0.0000000   0.0000000
 NMagM=    0.0000000   0.0000000   2.7928460   2.7928460   2.7928460   2.7928460   2.7928460   2.7928460
 Leave Link  101 at Wed May 26 19:07:21 2021, MaxMem=   13107200 cpu:       0.0
 (Enter /programs/64bit/g09/g09-gfortran/bin/l103.exe)

 GradGradGradGradGradGradGradGradGradGradGradGradGradGradGradGradGradGrad
 Berny optimization.
 Initialization pass.
                       ----------------------------
                       !    Initial Parameters    !
                       ! (Angstroms and Degrees)  !
 ----------------------                            ----------------------
 !      Name          Value   Derivative information (Atomic Units)     !
 ------------------------------------------------------------------------
 !       d1          1.0      Frozen                                    !
 !       a1        179.0      Frozen                                    !
 !       t1        120.0      Frozen                                    !
 !       d2          1.03     Frozen                                    !
 !       a2        110.0      Frozen                                    !
 !       t2       -179.0      Frozen                                    !
 !       d3          1.05     Frozen                                    !
 !       d4          1.1      Frozen                                    !
 !       a3        109.0      Frozen                                    !
 !       d5          1.03     Frozen                                    !
 !       a4        109.0      Frozen                                    !
 !       t3        180.0      Frozen                                    !
 !       d6          1.05     Frozen                                    !
 !       a5        109.0      Frozen                                    !
 !       t4        120.0      Frozen                                    !
 !       d7          1.1      Frozen                                    !
 !       a6        179.0      Frozen                                    !
 !       t5       -120.0      Frozen                                    !
 ------------------------------------------------------------------------
 Trust Radius=3.00D-01 FncErr=1.00D-07 GrdErr=1.00D-07
 Number of steps in this run=   2 maximum allowed number of steps=   2.
 GradGradGradGradGradGradGradGradGradGradGradGradGradGradGradGradGradGrad

 Leave Link  103 at Wed May 26 19:07:21 2021, MaxMem=   13107200 cpu:       0.0
 (Enter /programs/64bit/g09/g09-gfortran/bin/l202.exe)
                          Input orientation:                          
 ---------------------------------------------------------------------
 Center     Atomic      Atomic             Coordinates (Angstroms)
 Number     Number       Type             X           Y           Z
 ---------------------------------------------------------------------
      1          6           0        0.000000    0.000000    0.000000
      2          6           0        0.000000    0.000000    1.000000
      3          1           0        0.017976    0.000000   -1.029843
      4          1           0       -0.493339   -0.854488   -0.359121
      5          1           0       -1.039912    0.018152   -0.358125
      6          1           0       -0.973884    0.000000    1.335335
      7          1           0        0.496397   -0.859785    1.341847
      8          1           0        0.009599    0.016626    2.099832
 ---------------------------------------------------------------------
                    Distance matrix (angstroms):
                    1          2          3          4          5
     1  C    0.000000
     2  C    1.000000   0.000000
     3  H    1.030000   2.029923   0.000000
     4  H    1.050000   1.679507   1.200608   0.000000
     5  H    1.100000   1.710629   1.253260   1.029681   0.000000
     6  H    1.652746   1.030000   2.564733   1.957615   1.694844
     7  H    1.669189   1.050000   2.567690   1.967968   2.453757
     8  H    2.099920   1.100000   3.129731   2.656734   2.672645
                    6          7          8
     6  H    0.000000
     7  H    1.703232   0.000000
     8  H    1.245781   1.256826   0.000000
 Symmetry turned off by external request.
 Stoichiometry    C2H6
 Framework group  C1[X(C2H6)]
 Deg. of freedom    18
 Full point group                 C1      NOp   1
 Rotational constants (GHZ):    135.8614110     33.0718120     31.0652893
 Leave Link  202 at Wed May 26 19:07:21 2021, MaxMem=   13107200 cpu:       0.0
 (Enter /programs/64bit/g09/g09-gfortran/bin/l301.exe)
 Standard basis: 6-31+G(d,p) (6D, 7F)
 Ernie: Thresh=  0.10000D-02 Tol=  0.10000D-05 Strict=F.
 Integral buffers will be    131072 words long.
 Raffenetti 2 integral format.
 Two-electron integral symmetry is turned off.
    68 basis functions,   106 primitive gaussians,    68 cartesian basis functions
     9 alpha electrons        9 beta electrons
       nuclear repulsion energy        52.2612615322 Hartrees.
 IExCor=  402 DFT=T Ex+Corr=B3LYP ExCW=0 ScaHFX=  0.200000
 ScaDFX=  0.800000  0.720000  1.000000  0.810000 ScalE2=  1.000000  1.000000
 IRadAn=      0 IRanWt=     -1 IRanGd=            0 ICorTp=0
 NAtoms=    8 NActive=    8 NUniq=    8 SFac= 7.50D-01 NAtFMM=   80 NAOKFM=F Big=F
 Leave Link  301 at Wed May 26 19:07:21 2021, MaxMem=   13107200 cpu:       0.0
 (Enter /programs/64bit/g09/g09-gfortran/bin/l302.exe)
 NPDir=0 NMtPBC=     1 NCelOv=     1 NCel=       1 NClECP=     1 NCelD=      1
         NCelK=      1 NCelE2=     1 NClLst=     1 CellRange=     0.0.
 One-electron integrals computed using PRISM.
 NBasis=    68 RedAO= T  NBF=    68
 NBsUse=    68 1.00D-06 NBFU=    68
 Precomputing XC quadrature grid using
 IXCGrd= 2 IRadAn=           0 IRanWt=          -1 IRanGd=           0 AccXCQ= 1.00D-10.
 NRdTot=     510 NPtTot=       64808 NUsed=       68495 NTot=       68527
 NSgBfM=    68    68    68    68    68 NAtAll=     8     8.
 Leave Link  302 at Wed May 26 19:07:21 2021, MaxMem=   13107200 cpu:       0.1
 (Enter /programs/64bit/g09/g09-gfortran/bin/l303.exe)
 DipDrv:  MaxL=1.
 Leave Link  303 at Wed May 26 19:07:21 2021, MaxMem=   13107200 cpu:       0.0
 (Enter /programs/64bit/g09/g09-gfortran/bin/l401.exe)
 Harris functional with IExCor=  402 diagonalized for initial guess.
 ExpMin= 4.38D-02 ExpMax= 3.05D+03 ExpMxC= 4.57D+02 IAcc=2 IRadAn=         0 AccDes= 0.00D+00
 HarFok:  IExCor=  402 AccDes= 0.00D+00 IRadAn=         0 IDoV= 1
 ScaDFX=  1.000000  1.000000  1.000000  1.000000
 FoFCou: FMM=F IPFlag=           0 FMFlag=      100000 FMFlg1=           0
         NFxFlg=           0 DoJE=T BraDBF=F KetDBF=T FulRan=T
         Omega=  0.000000  0.000000  1.000000  0.000000  0.000000 ICntrl=     500 IOpCl=  0
         NMat0=    1 NMatS0=    1 NMatT0=    0 NMatD0=    1 NMtDS0=    0 NMtDT0=    0
         I1Cent=           4 NGrid=           0.
 Symmetry not used in FoFCou.
 Harris En= -79.3627761670036    
 Leave Link  401 at Wed May 26 19:07:22 2021, MaxMem=   13107200 cpu:       0.7
 (Enter /programs/64bit/g09/g09-gfortran/bin/l502.exe)
 Closed shell SCF:
 Requested convergence on RMS density matrix=1.00D-08 within 128 cycles.
 Requested convergence on MAX density matrix=1.00D-06.
 Requested convergence on             energy=1.00D-06.
 No special actions if energy rises.
 Using DIIS extrapolation, IDIIS=  1040.
 Two-electron integral symmetry not used.
        68410 words used for storage of precomputed grid.
 Keep R1 ints in memory in canonical form, NReq=3742795.
 IEnd=      101260 IEndB=      101260 NGot=    13107200 MDV=    10274214
 LenX=    10274214 LenY=    10269149
 Symmetry not used in FoFDir.
 MinBra= 0 MaxBra= 2 Meth= 1.
 IRaf=       0 NMat=   1 IRICut=       1 DoRegI=T DoRafI=F ISym2E= 0 JSym2E=0.

 Cycle   1  Pass 1  IDiag  1:
 E= -78.6753438339373    
 DIIS: error= 6.70D-02 at cycle   1 NSaved=   1.
 NSaved= 1 IEnMin= 1 EnMin= -78.6753438339373     IErMin= 1 ErrMin= 6.70D-02
 ErrMax= 6.70D-02 EMaxC= 1.00D-01 BMatC= 4.73D-01 BMatP= 4.73D-01
 IDIUse=3 WtCom= 3.30D-01 WtEn= 6.70D-01
 Coeff-Com:  0.100D+01
 Coeff-En:   0.100D+01
 Coeff:      0.100D+01
 Gap=     0.048 Goal=   None    Shift=    0.000
 GapD=    0.048 DampG=0.250 DampE=0.500 DampFc=0.2500 IDamp=-1.
 Damping current iteration by 2.50D-01
 RMSDP=2.42D+00 MaxDP=7.90D+01              OVMax= 5.30D-01

 Cycle   2  Pass 1  IDiag  1:
 E= -78.8424766040639     Delta-E=       -0.167132770127 Rises=F Damp=T
 DIIS: error= 2.17D-02 at cycle   2 NSaved=   2.
 NSaved= 2 IEnMin= 2 EnMin= -78.8424766040639     IErMin= 2 ErrMin= 2.17D-02
 ErrMax= 2.17D-02 EMaxC= 1.00D-01 BMatC= 6.49D-02 BMatP= 4.73D-01
 IDIUse=3 WtCom= 7.83D-01 WtEn= 2.17D-01
 Coeff-Com: -0.556D+00 0.156D+01
 Coeff-En:   0.000D+00 0.100D+01
 Coeff:     -0.435D+00 0.144D+01
 Gap=     0.140 Goal=   None    Shift=    0.000
 RMSDP=5.33D-01 MaxDP=1.75D+01 DE=-1.67D-01 OVMax= 3.38D-01

 Cycle   3  Pass 1  IDiag  1:
 E= -79.1272700586966     Delta-E=       -0.284793454633 Rises=F Damp=F
 DIIS: error= 3.75D-03 at cycle   3 NSaved=   3.
 NSaved= 3 IEnMin= 3 EnMin= -79.1272700586966     IErMin= 3 ErrMin= 3.75D-03
 ErrMax= 3.75D-03 EMaxC= 1.00D-01 BMatC= 1.32D-03 BMatP= 6.49D-02
 IDIUse=3 WtCom= 9.63D-01 WtEn= 3.75D-02
 Coeff-Com:  0.104D-01 0.807D-01 0.909D+00
 Coeff-En:   0.000D+00 0.000D+00 0.100D+01
 Coeff:      0.999D-02 0.776D-01 0.912D+00
 Gap=     0.157 Goal=   None    Shift=    0.000
 RMSDP=1.79D-02 MaxDP=5.50D-01 DE=-2.85D-01 OVMax= 1.60D-02

 Cycle   4  Pass 1  IDiag  1:
 E= -79.1282502018903     Delta-E=       -0.000980143194 Rises=F Damp=F
 DIIS: error= 1.00D-03 at cycle   4 NSaved=   4.
 NSaved= 4 IEnMin= 4 EnMin= -79.1282502018903     IErMin= 4 ErrMin= 1.00D-03
 ErrMax= 1.00D-03 EMaxC= 1.00D-01 BMatC= 9.25D-05 BMatP= 1.32D-03
 IDIUse=3 WtCom= 9.90D-01 WtEn= 1.00D-02
 Coeff-Com:  0.348D-01-0.598D-01 0.271D+00 0.754D+00
 Coeff-En:   0.000D+00 0.000D+00 0.000D+00 0.100D+01
 Coeff:      0.344D-01-0.592D-01 0.269D+00 0.756D+00
 Gap=     0.158 Goal=   None    Shift=    0.000
 RMSDP=1.84D-03 MaxDP=5.47D-02 DE=-9.80D-04 OVMax= 7.24D-03

 Cycle   5  Pass 1  IDiag  1:
 E= -79.1283432486328     Delta-E=       -0.000093046742 Rises=F Damp=F
 DIIS: error= 3.93D-04 at cycle   5 NSaved=   5.
 NSaved= 5 IEnMin= 5 EnMin= -79.1283432486328     IErMin= 5 ErrMin= 3.93D-04
 ErrMax= 3.93D-04 EMaxC= 1.00D-01 BMatC= 1.79D-05 BMatP= 9.25D-05
 IDIUse=3 WtCom= 9.96D-01 WtEn= 3.93D-03
 Coeff-Com:  0.119D-01-0.186D-01 0.407D-01 0.278D+00 0.688D+00
 Coeff-En:   0.000D+00 0.000D+00 0.000D+00 0.000D+00 0.100D+01
 Coeff:      0.118D-01-0.185D-01 0.405D-01 0.277D+00 0.689D+00
 Gap=     0.158 Goal=   None    Shift=    0.000
 RMSDP=2.12D-03 MaxDP=6.28D-02 DE=-9.30D-05 OVMax= 2.39D-03

 Cycle   6  Pass 1  IDiag  1:
 E= -79.1283642886330     Delta-E=       -0.000021040000 Rises=F Damp=F
 DIIS: error= 4.82D-05 at cycle   6 NSaved=   6.
 NSaved= 6 IEnMin= 6 EnMin= -79.1283642886330     IErMin= 6 ErrMin= 4.82D-05
 ErrMax= 4.82D-05 EMaxC= 1.00D-01 BMatC= 2.20D-07 BMatP= 1.79D-05
 IDIUse=1 WtCom= 1.00D+00 WtEn= 0.00D+00
 Coeff-Com:  0.233D-02-0.300D-02 0.724D-02 0.349D-01 0.919D-01 0.867D+00
 Coeff:      0.233D-02-0.300D-02 0.724D-02 0.349D-01 0.919D-01 0.867D+00
 Gap=     0.158 Goal=   None    Shift=    0.000
 RMSDP=4.92D-05 MaxDP=1.35D-03 DE=-2.10D-05 OVMax= 2.06D-04

 Cycle   7  Pass 1  IDiag  1:
 E= -79.1283644986089     Delta-E=       -0.000000209976 Rises=F Damp=F
 DIIS: error= 1.12D-05 at cycle   7 NSaved=   7.
 NSaved= 7 IEnMin= 7 EnMin= -79.1283644986089     IErMin= 7 ErrMin= 1.12D-05
 ErrMax= 1.12D-05 EMaxC= 1.00D-01 BMatC= 1.74D-08 BMatP= 2.20D-07
 IDIUse=1 WtCom= 1.00D+00 WtEn= 0.00D+00
 Coeff-Com:  0.483D-03-0.628D-03 0.161D-02 0.695D-03-0.644D-02 0.266D+00
 Coeff-Com:  0.738D+00
 Coeff:      0.483D-03-0.628D-03 0.161D-02 0.695D-03-0.644D-02 0.266D+00
 Coeff:      0.738D+00
 Gap=     0.158 Goal=   None    Shift=    0.000
 RMSDP=7.20D-05 MaxDP=2.21D-03 DE=-2.10D-07 OVMax= 6.97D-05

 Cycle   8  Pass 1  IDiag  1:
 E= -79.1283645159159     Delta-E=       -0.000000017307 Rises=F Damp=F
 DIIS: error= 3.03D-06 at cycle   8 NSaved=   8.
 NSaved= 8 IEnMin= 8 EnMin= -79.1283645159159     IErMin= 8 ErrMin= 3.03D-06
 ErrMax= 3.03D-06 EMaxC= 1.00D-01 BMatC= 9.18D-10 BMatP= 1.74D-08
 IDIUse=1 WtCom= 1.00D+00 WtEn= 0.00D+00
 Coeff-Com:  0.395D-04-0.524D-04 0.146D-03-0.167D-02-0.801D-02 0.213D-01
 Coeff-Com:  0.200D+00 0.788D+00
 Coeff:      0.395D-04-0.524D-04 0.146D-03-0.167D-02-0.801D-02 0.213D-01
 Coeff:      0.200D+00 0.788D+00
 Gap=     0.158 Goal=   None    Shift=    0.000
 RMSDP=1.24D-05 MaxDP=3.88D-04 DE=-1.73D-08 OVMax= 2.21D-05

 Cycle   9  Pass 1  IDiag  1:
 E= -79.1283645169493     Delta-E=       -0.000000001033 Rises=F Damp=F
 DIIS: error= 6.37D-07 at cycle   9 NSaved=   9.
 NSaved= 9 IEnMin= 9 EnMin= -79.1283645169493     IErMin= 9 ErrMin= 6.37D-07
 ErrMax= 6.37D-07 EMaxC= 1.00D-01 BMatC= 3.06D-11 BMatP= 9.18D-10
 IDIUse=1 WtCom= 1.00D+00 WtEn= 0.00D+00
 Coeff-Com: -0.168D-04 0.286D-04-0.482D-04-0.681D-03-0.244D-02-0.736D-02
 Coeff-Com:  0.289D-01 0.236D+00 0.746D+00
 Coeff:     -0.168D-04 0.286D-04-0.482D-04-0.681D-03-0.244D-02-0.736D-02
 Coeff:      0.289D-01 0.236D+00 0.746D+00
 Gap=     0.158 Goal=   None    Shift=    0.000
 RMSDP=6.40D-07 MaxDP=1.80D-05 DE=-1.03D-09 OVMax= 5.70D-06

 Cycle  10  Pass 1  IDiag  1:
 E= -79.1283645169955     Delta-E=       -0.000000000046 Rises=F Damp=F
 DIIS: error= 1.14D-07 at cycle  10 NSaved=  10.
 NSaved=10 IEnMin=10 EnMin= -79.1283645169955     IErMin=10 ErrMin= 1.14D-07
 ErrMax= 1.14D-07 EMaxC= 1.00D-01 BMatC= 1.41D-12 BMatP= 3.06D-11
 IDIUse=1 WtCom= 1.00D+00 WtEn= 0.00D+00
 Coeff-Com: -0.335D-05 0.385D-05-0.113D-04 0.893D-04 0.494D-03-0.132D-02
 Coeff-Com: -0.926D-02-0.389D-01 0.532D-01 0.996D+00
 Coeff:     -0.335D-05 0.385D-05-0.113D-04 0.893D-04 0.494D-03-0.132D-02
 Coeff:     -0.926D-02-0.389D-01 0.532D-01 0.996D+00
 Gap=     0.158 Goal=   None    Shift=    0.000
 RMSDP=2.87D-07 MaxDP=1.03D-05 DE=-4.62D-11 OVMax= 2.45D-06

 Cycle  11  Pass 1  IDiag  1:
 E= -79.1283645169986     Delta-E=       -0.000000000003 Rises=F Damp=F
 DIIS: error= 3.01D-08 at cycle  11 NSaved=  11.
 NSaved=11 IEnMin=11 EnMin= -79.1283645169986     IErMin=11 ErrMin= 3.01D-08
 ErrMax= 3.01D-08 EMaxC= 1.00D-01 BMatC= 7.17D-14 BMatP= 1.41D-12
 IDIUse=1 WtCom= 1.00D+00 WtEn= 0.00D+00
 Coeff-Com: -0.742D-06 0.728D-06-0.221D-05 0.260D-04 0.146D-03 0.501D-04
 Coeff-Com: -0.218D-02-0.134D-01-0.184D-01 0.164D+00 0.870D+00
 Coeff:     -0.742D-06 0.728D-06-0.221D-05 0.260D-04 0.146D-03 0.501D-04
 Coeff:     -0.218D-02-0.134D-01-0.184D-01 0.164D+00 0.870D+00
 Gap=     0.158 Goal=   None    Shift=    0.000
 RMSDP=3.74D-08 MaxDP=1.33D-06 DE=-3.13D-12 OVMax= 3.53D-07

 Cycle  12  Pass 1  IDiag  1:
 E= -79.1283645169985     Delta-E=        0.000000000000 Rises=F Damp=F
 DIIS: error= 6.46D-09 at cycle  12 NSaved=  12.
 NSaved=12 IEnMin=11 EnMin= -79.1283645169986     IErMin=12 ErrMin= 6.46D-09
 ErrMax= 6.46D-09 EMaxC= 1.00D-01 BMatC= 4.36D-15 BMatP= 7.17D-14
 IDIUse=1 WtCom= 1.00D+00 WtEn= 0.00D+00
 Coeff-Com: -0.106D-06 0.146D-06-0.248D-07-0.115D-05 0.841D-06 0.108D-03
 Coeff-Com:  0.137D-03-0.496D-03-0.894D-02-0.247D-01 0.198D+00 0.836D+00
 Coeff:     -0.106D-06 0.146D-06-0.248D-07-0.115D-05 0.841D-06 0.108D-03
 Coeff:      0.137D-03-0.496D-03-0.894D-02-0.247D-01 0.198D+00 0.836D+00
 Gap=     0.158 Goal=   None    Shift=    0.000
 RMSDP=1.92D-08 MaxDP=6.21D-07 DE= 5.68D-14 OVMax= 9.52D-08

 Cycle  13  Pass 1  IDiag  1:
 E= -79.1283645169985     Delta-E=        0.000000000000 Rises=F Damp=F
 DIIS: error= 1.24D-09 at cycle  13 NSaved=  13.
 NSaved=13 IEnMin=11 EnMin= -79.1283645169986     IErMin=13 ErrMin= 1.24D-09
 ErrMax= 1.24D-09 EMaxC= 1.00D-01 BMatC= 1.79D-16 BMatP= 4.36D-15
 IDIUse=1 WtCom= 1.00D+00 WtEn= 0.00D+00
 Coeff-Com:  0.589D-07-0.976D-07 0.240D-06-0.764D-06-0.477D-05 0.300D-04
 Coeff-Com:  0.136D-03 0.490D-03-0.138D-02-0.129D-01-0.962D-02 0.179D+00
 Coeff-Com:  0.844D+00
 Coeff:      0.589D-07-0.976D-07 0.240D-06-0.764D-06-0.477D-05 0.300D-04
 Coeff:      0.136D-03 0.490D-03-0.138D-02-0.129D-01-0.962D-02 0.179D+00
 Coeff:      0.844D+00
 Gap=     0.158 Goal=   None    Shift=    0.000
 RMSDP=2.08D-09 MaxDP=6.98D-08 DE= 8.53D-14 OVMax= 1.66D-08

 SCF Done:  E(RB3LYP) =  -79.1283645170     A.U. after   13 cycles
             Convg  =    0.2080D-08             -V/T =  1.9708
 KE= 8.150971667595D+01 PE=-2.884860279594D+02 EE= 7.558668523431D+01
 Leave Link  502 at Wed May 26 19:07:30 2021, MaxMem=   13107200 cpu:       8.1
 (Enter /programs/64bit/g09/g09-gfortran/bin/l601.exe)
 Copying SCF densities to generalized density rwf, IOpCl= 0 IROHF=0.

 **********************************************************************

            Population analysis using the SCF density.

 **********************************************************************

 Alpha  occ. eigenvalues --  -10.17790 -10.16372  -0.92994  -0.71084  -0.59691
 Alpha  occ. eigenvalues --   -0.53451  -0.44962  -0.24582  -0.17575
 Alpha virt. eigenvalues --   -0.01739   0.00822   0.03139   0.03533   0.05629
 Alpha virt. eigenvalues --    0.09285   0.09699   0.12133   0.14482   0.17246
 Alpha virt. eigenvalues --    0.21829   0.23224   0.24797   0.32479   0.55318
 Alpha virt. eigenvalues --    0.59029   0.59539   0.67609   0.70685   0.75360
 Alpha virt. eigenvalues --    0.82470   0.86747   0.90255   0.97155   1.00502
 Alpha virt. eigenvalues --    1.13185   1.15738   1.22026   1.36185   1.42036
 Alpha virt. eigenvalues --    1.56372   1.74941   1.75505   1.82617   1.96027
 Alpha virt. eigenvalues --    2.03741   2.11131   2.18218   2.38446   2.42155
 Alpha virt. eigenvalues --    2.43415   2.49177   2.56848   2.71508   2.77870
 Alpha virt. eigenvalues --    2.88284   2.96909   3.05688   3.10873   3.18436
 Alpha virt. eigenvalues --    3.31804   3.34473   3.43653   3.51322   3.62149
 Alpha virt. eigenvalues --    3.70263   4.52587   5.20499   6.23735
          Condensed to atoms (all electrons):
              1          2          3          4          5          6
     1  C    9.854436  -4.459854   0.093742   1.188775   0.270093  -0.499144
     2  C   -4.459854  10.079708   0.330721  -1.073743  -0.060338   0.862754
     3  H    0.093742   0.330721   0.650692  -0.167316  -0.093079   0.024025
     4  H    1.188775  -1.073743  -0.167316   1.238429  -0.087161  -0.041864
     5  H    0.270093  -0.060338  -0.093079  -0.087161   0.991862  -0.125407
     6  H   -0.499144   0.862754   0.024025  -0.041864  -0.125407   0.748687
     7  H   -0.754941   1.043239   0.010644  -0.135233   0.041665  -0.048474
     8  H    0.595739  -0.278247  -0.003771   0.037379   0.000017  -0.070865
              7          8
     1  C   -0.754941   0.595739
     2  C    1.043239  -0.278247
     3  H    0.010644  -0.003771
     4  H   -0.135233   0.037379
     5  H    0.041665   0.000017
     6  H   -0.048474  -0.070865
     7  H    0.852981  -0.117224
     8  H   -0.117224   0.618945
 Mulliken atomic charges:
              1
     1  C   -0.288845
     2  C   -0.444239
     3  H    0.154342
     4  H    0.040734
     5  H    0.062348
     6  H    0.150289
     7  H    0.107343
     8  H    0.218027
 Sum of Mulliken atomic charges =  -0.00000
 Mulliken charges with hydrogens summed into heavy atoms:
              1
     1  C   -0.031420
     2  C    0.031420
 Sum of Mulliken charges with hydrogens summed into heavy atoms =  -0.00000
 Electronic spatial extent (au):  <R**2>=            103.6957
 Charge=             -0.0000 electrons
 Dipole moment (field-independent basis, Debye):
    X=             -1.2655    Y=             -1.0571    Z=              0.4393  Tot=              1.7065
 Quadrupole moment (field-independent basis, Debye-Ang):
   XX=            -15.2109   YY=            -17.2002   ZZ=            -14.3574
   XY=             -0.0449   XZ=             -0.6935   YZ=             -0.8432
 Traceless Quadrupole moment (field-independent basis, Debye-Ang):
   XX=              0.3785   YY=             -1.6107   ZZ=              1.2321
   XY=             -0.0449   XZ=             -0.6935   YZ=             -0.8432
 Octapole moment (field-independent basis, Debye-Ang**2):
  XXX=              3.5254  YYY=              3.5408  ZZZ=            -21.2156  XYY=              1.4074
  XXY=              0.6573  XXZ=             -7.1243  XZZ=             -1.3854  YZZ=             -2.2993
  YYZ=             -8.5437  XYZ=             -0.7985
 Hexadecapole moment (field-independent basis, Debye-Ang**3):
 XXXX=            -30.5530 YYYY=            -31.6061 ZZZZ=            -94.1018 XXXY=              0.1513
 XXXZ=             -1.7396 YYYX=             -0.2541 YYYZ=              0.7159 ZZZX=             -4.2665
 ZZZY=             -4.9645 XXYY=            -10.4747 XXZZ=            -23.3536 YYZZ=            -26.2249
 XXYZ=              0.5181 YYXZ=             -0.9039 ZZXY=             -0.8754
 N-N= 5.226126153216D+01 E-N=-2.884860278442D+02  KE= 8.150971667595D+01
 No NMR shielding tensors so no spin-rotation constants.
 Leave Link  601 at Wed May 26 19:07:30 2021, MaxMem=   13107200 cpu:       0.1
 (Enter /programs/64bit/g09/g09-gfortran/bin/l701.exe)
 Compute integral first derivatives.
 ... and contract with generalized density number  0.
 Leave Link  701 at Wed May 26 19:07:30 2021, MaxMem=   13107200 cpu:       0.1
 (Enter /programs/64bit/g09/g09-gfortran/bin/l702.exe)
 L702 exits ... SP integral derivatives will be done elsewhere.
 Leave Link  702 at Wed May 26 19:07:30 2021, MaxMem=   13107200 cpu:       0.0
 (Enter /programs/64bit/g09/g09-gfortran/bin/l703.exe)
 Compute integral first derivatives, UseDBF=F ICtDFT=           0.
 Integral derivatives from FoFDir, PRISM(SPDF).
 Calling FoFJK, ICntrl=      2127 FMM=F ISym2X=0 I1Cent= 0 IOpClX= 0 NMat=1 NMatS=1 NMatT=0.
 FoFCou: FMM=F IPFlag=           0 FMFlag=      100000 FMFlg1=         800
         NFxFlg=           0 DoJE=F BraDBF=F KetDBF=F FulRan=T
         Omega=  0.000000  0.000000  1.000000  0.000000  0.000000 ICntrl=    2127 IOpCl=  0
         NMat0=    1 NMatS0=    1 NMatT0=    0 NMatD0=    1 NMtDS0=    0 NMtDT0=    0
         I1Cent=           0 NGrid=           0.
 Symmetry not used in FoFCou.
 Leave Link  703 at Wed May 26 19:07:32 2021, MaxMem=   13107200 cpu:       1.4
 (Enter /programs/64bit/g09/g09-gfortran/bin/l716.exe)
 Dipole        =-4.97894956D-01-4.15905520D-01 1.72820342D-01
 -------------------------------------------------------------------
 Center     Atomic                   Forces (Hartrees/Bohr)
 Number     Number              X              Y              Z
 -------------------------------------------------------------------
      1        6          -0.088360465    0.027559666   -1.242483449
      2        6           0.039689019   -0.025100189    1.251908376
      3        1           0.101455371    0.062196929   -0.060481526
      4        1          -0.005326869   -0.116902455   -0.016252834
      5        1          -0.054639578    0.058796854   -0.011488288
      6        1          -0.061162714   -0.023499286    0.031473723
      7        1           0.020590523   -0.069882933    0.029120563
      8        1           0.047754713    0.086831413    0.018203434
 -------------------------------------------------------------------
 Cartesian Forces:  Max     1.251908376 RMS     0.364105973
 -----------------------------------------------------------------------------------------------
                       Internal Coordinate Forces (Hartree/Bohr or radian)
  Cent   Atom   N1       Length/X         N2         Alpha/Y        N3         Beta/Z          J
 -----------------------------------------------------------------------------------------------
      1  C 
      2  C        1   1.330706(     1)
      3  H        1   0.062243(     2)      2  -0.195390(     8)
      4  H        1   0.103197(     3)      2  -0.040209(     9)      3  -0.100384(    14)     0
      5  H        1   0.056365(     4)      2  -0.015087(    10)      3   0.113670(    15)     0
      6  H        2   0.068077(     5)      1   0.019165(    11)      3   0.011223(    16)     0
      7  H        2   0.076438(     6)      1   0.008887(    12)      6  -0.032099(    17)     0
      8  H        2   0.019930(     7)      1  -0.205256(    13)      6   0.000075(    18)     0
 -----------------------------------------------------------------------------------------------
 Internal  Forces:  Max     1.330706097 RMS     0.325414803
 Force constants in Cartesian coordinates: 
                1             2             3             4             5 
      1  0.151189D+03
      2 -0.200362D+03  0.972648D+03
      3  0.136006D+00  0.912796D-01  0.398396D+01
      4 -0.289156D+03  0.382474D+03  0.579345D-01  0.556038D+03
      5  0.224737D+03 -0.655697D+03  0.344541D-01 -0.430574D+03  0.516455D+03
      6 -0.204976D-01 -0.341404D-01 -0.332740D+01 -0.785895D-01 -0.123312D+00
      7 -0.148775D+00  0.301867D-02 -0.518466D-01  0.525517D-01 -0.514449D-02
      8  0.567002D+02 -0.422254D+03 -0.333464D-01 -0.107561D+03  0.259680D+03
      9  0.487043D-02  0.526911D-04 -0.428707D+00  0.917293D-03 -0.897975D-04
     10  0.686986D+00 -0.633256D+00 -0.623792D-01 -0.166714D+01  0.970634D+00
     11 -0.603570D+00  0.461614D-02 -0.803475D-01  0.970993D+00 -0.545720D+00
     12 -0.554150D-01 -0.898754D-01 -0.121897D+00 -0.201535D-01 -0.349183D-01
     13 -0.324950D+00  0.140568D-01 -0.797152D-01  0.457775D-01 -0.183554D-01
     14 -0.100600D+01  0.439748D+00 -0.120398D-01  0.185909D+01 -0.104065D+01
     15 -0.854619D-01 -0.145688D-02 -0.105957D+00 -0.386983D-01  0.554019D-03
     16  0.141888D-01  0.153404D-05  0.000000D+00 -0.388273D+00  0.778649D-02
     17 -0.248260D-01 -0.231949D+01  0.000000D+00 -0.175740D-01  0.103821D+01
     18  0.412074D-01  0.445516D-05  0.000000D+00  0.114800D+00  0.226136D-01
     19  0.498641D-01  0.200826D+01  0.000000D+00 -0.209772D+00 -0.956598D+00
     20  0.207551D-01  0.117339D+01  0.000000D+00  0.954067D-01 -0.909834D+00
     21 -0.202064D-01  0.350078D-01  0.000000D+00 -0.344807D-01  0.103687D+00
     22  0.137690D+03 -0.183504D+03  0.000000D+00 -0.264715D+03  0.205839D+03
     23 -0.794621D+02  0.106004D+03  0.000000D+00  0.152753D+03 -0.118980D+03
     24 -0.503379D-03 -0.871907D-03  0.000000D+00 -0.172942D-02 -0.298853D-02
                6             7             8             9            10 
      6  0.393746D+01
      7  0.000000D+00  0.104303D+00
      8  0.000000D+00  0.127912D-01  0.191911D+03
      9  0.000000D+00 -0.564670D-02  0.223272D-03  0.427703D+00
     10  0.000000D+00  0.484661D-02 -0.117010D-01  0.845979D-04  0.174452D+00
     11  0.000000D+00 -0.111762D-01 -0.739110D-02 -0.195081D-03  0.105938D+00
     12  0.000000D+00  0.199345D-01  0.336604D-01  0.347957D-03  0.560843D-01
     13  0.000000D+00 -0.129256D-01  0.380199D-03 -0.225617D-03 -0.159196D-02
     14  0.000000D+00  0.510757D-03  0.111801D-01  0.891529D-05  0.313231D-01
     15  0.000000D+00  0.375589D-01 -0.537343D-03  0.655593D-03  0.621030D-02
     16  0.992794D-01  0.000000D+00  0.000000D+00  0.000000D+00  0.000000D+00
     17  0.334537D-01  0.000000D+00  0.118048D+01  0.000000D+00  0.186254D-01
     18 -0.139474D+00  0.000000D+00  0.000000D+00  0.000000D+00  0.000000D+00
     19 -0.172952D-01  0.000000D+00 -0.100285D+01  0.000000D+00 -0.158229D-01
     20  0.956062D-01  0.000000D+00 -0.578997D+00  0.000000D+00 -0.913533D-02
     21 -0.133191D+00  0.000000D+00  0.000000D+00  0.000000D+00  0.000000D+00
     22  0.171029D-01  0.000000D+00  0.518619D+02  0.000000D+00  0.818269D+00
     23  0.283926D-01  0.000000D+00 -0.299425D+02  0.000000D+00 -0.472428D+00
     24 -0.337400D+00  0.000000D+00  0.000000D+00  0.000000D+00  0.000000D+00
               11            12            13            14            15 
     11  0.301959D+00
     12  0.848123D-01  0.119921D+00
     13  0.110837D-02 -0.450302D-03  0.309031D+00
     14 -0.207410D-01  0.632098D-02 -0.604033D-02  0.103425D+00
     15 -0.426971D-02  0.162795D-02  0.803911D-01  0.570992D-02  0.103673D+00
     16  0.000000D+00  0.000000D+00  0.000000D+00  0.000000D+00  0.000000D+00
     17 -0.107534D-01  0.000000D+00 -0.356076D-03 -0.203996D-01  0.000000D+00
     18  0.000000D+00  0.000000D+00  0.000000D+00  0.000000D+00  0.000000D+00
     19  0.913533D-02  0.000000D+00  0.302498D-03  0.173301D-01  0.000000D+00
     20  0.527428D-02  0.000000D+00  0.174647D-03  0.100055D-01  0.000000D+00
     21  0.000000D+00  0.000000D+00  0.000000D+00  0.000000D+00  0.000000D+00
     22 -0.472428D+00  0.000000D+00 -0.156435D-01 -0.896214D+00  0.000000D+00
     23  0.272756D+00  0.000000D+00  0.903176D-02  0.517429D+00  0.000000D+00
     24  0.000000D+00  0.000000D+00  0.000000D+00  0.000000D+00  0.000000D+00
               16            17            18            19            20 
     16  0.392504D+00
     17 -0.569850D-02  0.109719D+00
     18 -0.102513D+00 -0.165496D-01  0.130083D+00
     19 -0.552810D-02  0.304697D-01 -0.160548D-01  0.175476D+00
     20 -0.195160D-02  0.109364D-01 -0.566786D-02 -0.115579D+00  0.296272D+00
     21  0.311887D-02 -0.167390D-01  0.905785D-02  0.335465D-01 -0.899546D-01
     22 -0.128914D-01 -0.640595D-03 -0.374394D-01  0.548085D-02  0.103297D-01
     23 -0.137928D-03  0.112946D-01 -0.400571D-03  0.983548D-02 -0.704504D-02
     24  0.114595D-03 -0.165144D-03  0.332809D-03 -0.196513D-03  0.163435D-04
               21            22            23            24 
     21  0.123807D+00
     22  0.180218D-01  0.126230D+03
     23 -0.320013D-01 -0.728376D+02  0.421244D+02
     24  0.326463D-03  0.231471D-02  0.400924D-02  0.336740D+00
 Force constants in internal coordinates: 
                1             2             3             4             5 
      1  0.332740D+01
      2  0.000000D+00  0.427802D+00
      3  0.000000D+00  0.000000D+00  0.398767D+00
      4  0.000000D+00  0.000000D+00  0.000000D+00  0.336821D+00
      5  0.000000D+00  0.000000D+00  0.000000D+00  0.000000D+00  0.427802D+00
      6  0.000000D+00  0.000000D+00  0.000000D+00  0.000000D+00  0.000000D+00
      7  0.000000D+00  0.000000D+00  0.000000D+00  0.000000D+00  0.000000D+00
      8  0.000000D+00  0.000000D+00  0.000000D+00  0.000000D+00  0.000000D+00
      9  0.000000D+00  0.000000D+00  0.000000D+00  0.000000D+00  0.000000D+00
     10  0.000000D+00  0.000000D+00  0.000000D+00  0.000000D+00  0.000000D+00
     11  0.000000D+00  0.000000D+00  0.000000D+00  0.000000D+00  0.000000D+00
     12  0.000000D+00  0.000000D+00  0.000000D+00  0.000000D+00  0.000000D+00
     13  0.000000D+00  0.000000D+00  0.000000D+00  0.000000D+00  0.000000D+00
     14  0.000000D+00  0.000000D+00  0.000000D+00  0.000000D+00  0.000000D+00
     15  0.000000D+00  0.000000D+00  0.000000D+00  0.000000D+00  0.000000D+00
     16  0.000000D+00  0.000000D+00  0.000000D+00  0.000000D+00  0.000000D+00
     17  0.000000D+00  0.000000D+00  0.000000D+00  0.000000D+00  0.000000D+00
     18  0.000000D+00  0.000000D+00  0.000000D+00  0.000000D+00  0.000000D+00
                6             7             8             9            10 
      6  0.398767D+00
      7  0.000000D+00  0.336821D+00
      8  0.000000D+00  0.000000D+00  0.394782D+00
      9  0.000000D+00  0.000000D+00  0.819425D-01  0.326703D+00
     10  0.000000D+00  0.000000D+00  0.160745D+00  0.755729D-02  0.328530D+00
     11  0.000000D+00  0.000000D+00  0.000000D+00  0.000000D+00  0.000000D+00
     12  0.000000D+00  0.000000D+00  0.000000D+00  0.000000D+00  0.000000D+00
     13  0.000000D+00  0.000000D+00  0.000000D+00  0.000000D+00  0.000000D+00
     14  0.000000D+00  0.000000D+00  0.355184D-01  0.242693D-01  0.307976D-01
     15  0.000000D+00  0.000000D+00 -0.109082D-02 -0.261964D-01 -0.307312D-01
     16  0.000000D+00  0.000000D+00  0.000000D+00  0.000000D+00  0.000000D+00
     17  0.000000D+00  0.000000D+00  0.000000D+00  0.000000D+00  0.000000D+00
     18  0.000000D+00  0.000000D+00  0.000000D+00  0.000000D+00  0.000000D+00
               11            12            13            14            15 
     11  0.359097D+00
     12  0.391300D-01  0.359093D+00
     13  0.816013D-01  0.815996D-01  0.309031D+00
     14  0.000000D+00  0.000000D+00  0.000000D+00  0.398356D+00
     15  0.000000D+00  0.000000D+00  0.000000D+00 -0.137270D+00  0.398956D+00
     16  0.462435D-03 -0.457860D-03 -0.318474D-05  0.221400D+00  0.221400D+00
     17 -0.646430D-01 -0.626992D-01 -0.362030D-01  0.737999D-01  0.737999D-01
     18  0.240648D-02 -0.240636D-02  0.000000D+00  0.737999D-01  0.737999D-01
               16            17            18 
     16  0.743080D+00
     17  0.261216D+00  0.371620D+00
     18  0.220651D+00 -0.414220D-03  0.221479D+00
 Leave Link  716 at Wed May 26 19:07:32 2021, MaxMem=   13107200 cpu:       0.0
 (Enter /programs/64bit/g09/g09-gfortran/bin/l103.exe)

 GradGradGradGradGradGradGradGradGradGradGradGradGradGradGradGradGradGrad
 Berny optimization.
 Search for a local minimum.
 Step number   1 out of a maximum of    2
 All quantities printed in internal units (Hartrees-Bohrs-Radians)
 Second derivative matrix not updated -- first step.
 The second derivative matrix:
                          d1        a1        t1        d2        a2
           d1           3.32740
           a1           0.00000   0.39478
           t1           0.00000   0.03552   0.39836
           d2           0.00000  -0.00000  -0.00000   0.42780
           a2           0.00000   0.08194   0.02427  -0.00000   0.32670
           t2           0.00000  -0.00109  -0.13727   0.00000  -0.02620
           d3          -0.00000   0.00000   0.00000   0.00000   0.00000
           d4           0.00000   0.00000   0.00000  -0.00000  -0.00000
           a3          -0.00000   0.16074   0.03080  -0.00000   0.00756
           d5           0.00000   0.00000   0.00000   0.00000  -0.00000
           a4          -0.00000   0.00000  -0.00000   0.00000  -0.00000
           t3          -0.00000   0.00000   0.22140   0.00000  -0.00000
           d6           0.00000   0.00000   0.00000   0.00000  -0.00000
           a5           0.00000   0.00000   0.00000   0.00000   0.00000
           t4          -0.00000   0.00000   0.07380   0.00000  -0.00000
           d7           0.00000   0.00000  -0.00000   0.00000   0.00000
           a6          -0.00000   0.00000   0.00000   0.00000   0.00000
           t5           0.00000   0.00000   0.07380   0.00000  -0.00000
                          t2        d3        d4        a3        d5
           t2           0.39896
           d3          -0.00000   0.39877
           d4           0.00000   0.00000   0.33682
           a3          -0.03073   0.00000   0.00000   0.32853
           d5           0.00000   0.00000  -0.00000   0.00000   0.42780
           a4          -0.00000   0.00000   0.00000  -0.00000   0.00000
           t3           0.22140   0.00000   0.00000  -0.00000  -0.00000
           d6           0.00000   0.00000   0.00000  -0.00000   0.00000
           a5          -0.00000  -0.00000   0.00000  -0.00000   0.00000
           t4           0.07380   0.00000  -0.00000   0.00000  -0.00000
           d7           0.00000   0.00000   0.00000  -0.00000   0.00000
           a6           0.00000  -0.00000   0.00000  -0.00000   0.00000
           t5           0.07380   0.00000   0.00000  -0.00000   0.00000
                          a4        t3        d6        a5        t4
           a4           0.35910
           t3           0.00046   0.74308
           d6           0.00000   0.00000   0.39877
           a5           0.03913  -0.00046   0.00000   0.35909
           t4          -0.06464   0.26122   0.00000  -0.06270   0.37162
           d7           0.00000   0.00000  -0.00000   0.00000  -0.00000
           a6           0.08160  -0.00000  -0.00000   0.08160  -0.03620
           t5           0.00241   0.22065   0.00000  -0.00241  -0.00041
                          d7        a6        t5
           d7           0.33682
           a6           0.00000   0.30903
           t5           0.00000   0.00000   0.22148
     Eigenvalues --- 1000.000001000.000001000.000001000.000001000.00000
     Eigenvalues --- 1000.000001000.000001000.000001000.000001000.00000
     Eigenvalues --- 1000.000001000.000001000.000001000.000001000.00000
     Eigenvalues --- 1000.000001000.000001000.00000
 Angle between quadratic step and forces=  90.00 degrees.
 Linear search not attempted -- first point.
 Variable       Old X    -DE/DX   Delta X   Delta X   Delta X     New X
                                 (Linear)    (Quad)   (Total)
    d1        1.88973   1.33071   0.00000   0.00000   0.00000   1.88973
    a1        3.12414  -0.19539   0.00000   0.00000   0.00000   3.12414
    t1        2.09440  -0.10038   0.00000   0.00000   0.00000   2.09440
    d2        1.94642   0.06224   0.00000   0.00000   0.00000   1.94642
    a2        1.91986  -0.04021   0.00000   0.00000   0.00000   1.91986
    t2       -3.12414   0.11367   0.00000   0.00000   0.00000  -3.12414
    d3        1.98421   0.10320   0.00000   0.00000   0.00000   1.98421
    d4        2.07870   0.05637   0.00000   0.00000   0.00000   2.07870
    a3        1.90241  -0.01509   0.00000   0.00000   0.00000   1.90241
    d5        1.94642   0.06808   0.00000   0.00000   0.00000   1.94642
    a4        1.90241   0.01917   0.00000   0.00000   0.00000   1.90241
    t3        3.14159   0.01122   0.00000   0.00000   0.00000   3.14159
    d6        1.98421   0.07644   0.00000   0.00000   0.00000   1.98421
    a5        1.90241   0.00889   0.00000   0.00000   0.00000   1.90241
    t4        2.09440  -0.03210   0.00000   0.00000   0.00000   2.09440
    d7        2.07870   0.01993   0.00000   0.00000   0.00000   2.07870
    a6        3.12414  -0.20526   0.00000   0.00000   0.00000   3.12414
    t5       -2.09440   0.00007   0.00000   0.00000   0.00000  -2.09440
         Item               Value     Threshold  Converged?
 Maximum Force            0.000000     0.000450     YES
 RMS     Force            0.000000     0.000300     YES
 Maximum Displacement     0.000000     0.001800     YES
 RMS     Displacement     0.000000     0.001200     YES
 Predicted change in Energy=-0.000000D+00
 Optimization completed.
    -- Stationary point found.
                       ----------------------------
                       !   Optimized Parameters   !
                       ! (Angstroms and Degrees)  !
 ----------------------                            ----------------------
 !      Name          Value   Derivative information (Atomic Units)     !
 ------------------------------------------------------------------------
 !       d1          1.0      -DE/DX =    1.3307                        !
 !       a1        179.0      -DE/DX =   -0.1954                        !
 !       t1        120.0      -DE/DX =   -0.1004                        !
 !       d2          1.03     -DE/DX =    0.0622                        !
 !       a2        110.0      -DE/DX =   -0.0402                        !
 !       t2       -179.0      -DE/DX =    0.1137                        !
 !       d3          1.05     -DE/DX =    0.1032                        !
 !       d4          1.1      -DE/DX =    0.0564                        !
 !       a3        109.0      -DE/DX =   -0.0151                        !
 !       d5          1.03     -DE/DX =    0.0681                        !
 !       a4        109.0      -DE/DX =    0.0192                        !
 !       t3        180.0      -DE/DX =    0.0112                        !
 !       d6          1.05     -DE/DX =    0.0764                        !
 !       a5        109.0      -DE/DX =    0.0089                        !
 !       t4        120.0      -DE/DX =   -0.0321                        !
 !       d7          1.1      -DE/DX =    0.0199                        !
 !       a6        179.0      -DE/DX =   -0.2053                        !
 !       t5       -120.0      -DE/DX =    0.0001                        !
 ------------------------------------------------------------------------
 GradGradGradGradGradGradGradGradGradGradGradGradGradGradGradGradGradGrad

 Leave Link  103 at Wed May 26 19:07:32 2021, MaxMem=   13107200 cpu:       0.0
 (Enter /programs/64bit/g09/g09-gfortran/bin/l9999.exe)
 1\1\GINC-MOLMOD\Force\RB3LYP\6-31+G(d,p)\C2H6\OSPITE\26-May-2021\1\\#p
  b3lyp/6-31+g(d,p) force nosym\\c2h6 molecule\\0,1\C\C,1,d1\H,1,d2,2,a
 1\H,1,d3,2,a2,3,t1,0\H,1,d4,2,a3,3,t2,0\H,2,d5,1,a4,3,t3,0\H,2,d6,1,a5
 ,6,t4,0\H,2,d7,1,a6,6,t5,0\\d1=1.\a1=179.\t1=120.\d2=1.03\a2=110.\t2=-
 179.\d3=1.05\d4=1.1\a3=109.\d5=1.03\a4=109.\t3=180.\d6=1.05\a5=109.\t4
 =120.\d7=1.1\a6=179.\t5=-120.\\Version=EM64L-G09RevA.02\HF=-79.1283645
 \RMSD=2.080e-09\RMSF=3.641e-01\Dipole=-0.497895,-0.4159055,0.1728203\Q
 uadrupole=0.2814411,-1.1975012,0.9160601,-0.0333735,-0.5155861,-0.6269
 119\PG=C01 [X(C2H6)]\\@


 LET US LEARN TO DREAM, GENTLEMEN, THEN PERHAPS WE SHALL
 DISCOVER THE TRUTH;  BUT LET US BEWARE OF PUBLISHING
 OUR DREAMS ABROAD BEFORE THEY HAVE BEEN SCRUTINIZED
 BY OUR VIGILANT INTELLECT ... LET US ALWAYS ALLOW
 THE FRUIT TO HANG UNTIL IT IS RIPE.  UNRIPE FRUIT
 BRINGS EVEN THE GROWER BUT LITTLE PROFIT; IT DAMAGES
 THE HEALTH OF THOSE WHO CONSUME IT; IT ENDANGERS
 PARTICULARLY THE YOUTH WHO CANNOT YET DISTINGUISH
 BETWEEN RIPE AND UNRIPE FRUIT.

                                  -- KEKULE, 1890
 Job cpu time:  0 days  0 hours  0 minutes 10.5 seconds.
 File lengths (MBytes):  RWF=      5 Int=      0 D2E=      0 Chk=      1 Scr=      1
 Normal termination of Gaussian 09 at Wed May 26 19:07:32 2021.
