 Entering Gaussian System, Link 0=g09
 Input=c2h6_014.com
 Output=c2h6_014.log
 Initial command:
 /programs/64bit/g09/g09-gfortran/bin/l1.exe /data/scratch/Gau-6192.inp -scrdir=/data/scratch/
 Entering Link 1 = /programs/64bit/g09/g09-gfortran/bin/l1.exe PID=      6193.
  
 Copyright (c) 1988,1990,1992,1993,1995,1998,2003,2009, Gaussian, Inc.
                  All Rights Reserved.
  
 This is part of the Gaussian(R) 09 program.  It is based on
 the Gaussian(R) 03 system (copyright 2003, Gaussian, Inc.),
 the Gaussian(R) 98 system (copyright 1998, Gaussian, Inc.),
 the Gaussian(R) 94 system (copyright 1995, Gaussian, Inc.),
 the Gaussian 92(TM) system (copyright 1992, Gaussian, Inc.),
 the Gaussian 90(TM) system (copyright 1990, Gaussian, Inc.),
 the Gaussian 88(TM) system (copyright 1988, Gaussian, Inc.),
 the Gaussian 86(TM) system (copyright 1986, Carnegie Mellon
 University), and the Gaussian 82(TM) system (copyright 1983,
 Carnegie Mellon University). Gaussian is a federally registered
 trademark of Gaussian, Inc.
  
 This software contains proprietary and confidential information,
 including trade secrets, belonging to Gaussian, Inc.
  
 This software is provided under written license and may be
 used, copied, transmitted, or stored only in accord with that
 written license.
  
 The following legend is applicable only to US Government
 contracts under FAR:
  
                    RESTRICTED RIGHTS LEGEND
  
 Use, reproduction and disclosure by the US Government is
 subject to restrictions as set forth in subparagraphs (a)
 and (c) of the Commercial Computer Software - Restricted
 Rights clause in FAR 52.227-19.
  
 Gaussian, Inc.
 340 Quinnipiac St., Bldg. 40, Wallingford CT 06492
  
  
 ---------------------------------------------------------------
 Warning -- This program may not be used in any manner that
 competes with the business of Gaussian, Inc. or will provide
 assistance to any competitor of Gaussian, Inc.  The licensee
 of this program is prohibited from giving any competitor of
 Gaussian, Inc. access to this program.  By using this program,
 the user acknowledges that Gaussian, Inc. is engaged in the
 business of creating and licensing software in the field of
 computational chemistry and represents and warrants to the
 licensee that it is not a competitor of Gaussian, Inc. and that
 it will not use this program in any manner prohibited above.
 ---------------------------------------------------------------
  

 Cite this work as:
 Gaussian 09, Revision A.02,
 M. J. Frisch, G. W. Trucks, H. B. Schlegel, G. E. Scuseria, 
 M. A. Robb, J. R. Cheeseman, G. Scalmani, V. Barone, B. Mennucci, 
 G. A. Petersson, H. Nakatsuji, M. Caricato, X. Li, H. P. Hratchian, 
 A. F. Izmaylov, J. Bloino, G. Zheng, J. L. Sonnenberg, M. Hada, 
 M. Ehara, K. Toyota, R. Fukuda, J. Hasegawa, M. Ishida, T. Nakajima, 
 Y. Honda, O. Kitao, H. Nakai, T. Vreven, J. A. Montgomery, Jr., 
 J. E. Peralta, F. Ogliaro, M. Bearpark, J. J. Heyd, E. Brothers, 
 K. N. Kudin, V. N. Staroverov, R. Kobayashi, J. Normand, 
 K. Raghavachari, A. Rendell, J. C. Burant, S. S. Iyengar, J. Tomasi, 
 M. Cossi, N. Rega, J. M. Millam, M. Klene, J. E. Knox, J. B. Cross, 
 V. Bakken, C. Adamo, J. Jaramillo, R. Gomperts, R. E. Stratmann, 
 O. Yazyev, A. J. Austin, R. Cammi, C. Pomelli, J. W. Ochterski, 
 R. L. Martin, K. Morokuma, V. G. Zakrzewski, G. A. Voth, 
 P. Salvador, J. J. Dannenberg, S. Dapprich, A. D. Daniels, 
 O. Farkas, J. B. Foresman, J. V. Ortiz, J. Cioslowski, 
 and D. J. Fox, Gaussian, Inc., Wallingford CT, 2009.
 
 ******************************************
 Gaussian 09:  EM64L-G09RevA.02 11-Jun-2009
                26-May-2021 
 ******************************************
 %chk=c2h6_014.chk
 %mem=100MB
 --------------------------------
 #p b3lyp/6-31+g(d,p) force nosym
 --------------------------------
 1/10=7,30=1,38=1/1,3;
 2/12=2,15=1,17=6,18=5,40=1/2;
 3/5=1,6=6,7=111,11=2,16=1,25=1,30=1,71=1,74=-5/1,2,3;
 4//1;
 5/5=2,38=5/2;
 6/7=2,8=2,9=2,10=2,28=1/1;
 7/29=1,30=1/1,2,3,16;
 1/10=7,30=1/3;
 99//99;
 Leave Link    1 at Wed May 26 19:10:06 2021, MaxMem=   13107200 cpu:       0.0
 (Enter /programs/64bit/g09/g09-gfortran/bin/l101.exe)
 -------------
 c2h6 molecule
 -------------
 Symbolic Z-matrix:
 Charge =  0 Multiplicity = 1
 C1
 C2                   1    d1
 H3                   1    d2       2    a1
 H4                   1    d3       2    a2       3    t1       0
 H5                   1    d4       2    a3       3    t2       0
 H6                   2    d5       1    a4       3    t3       0
 H7                   2    d6       1    a5       6    t4       0
 H8                   2    d7       1    a6       6    t5       0
       Variables:
       Constants:
  d1                    1.43317                  
  a1                  178.27421                  
  t1                  119.45701                  
  d2                    1.09573                  
  a2                  109.44716                  
  t2                 -178.45409                  
  d3                    1.2596                   
  d4                    1.13558                  
  a3                  108.39743                  
  d5                    1.10788                  
  a4                  108.51275                  
  t3                  179.99611                  
  d6                    1.10821                  
  a5                  108.51436                  
  t4                  120.09475                  
  d7                    1.35789                  
  a6                  178.46074                  
  t5                 -120.                       
 
 NAtoms=      8 NQM=      8 NQMF=      0 NMic=      0 NMicF=      0 NTot=      8.
                    Isotopes and Nuclear Properties:
 (Nuclear quadrupole moments (NQMom) in fm**2, nuclear magnetic moments (NMagM)
  in nuclear magnetons)

  Atom         1           2           3           4           5           6           7           8
 IAtWgt=          12          12           1           1           1           1           1           1
 AtmWgt=  12.0000000  12.0000000   1.0078250   1.0078250   1.0078250   1.0078250   1.0078250   1.0078250
 NucSpn=           0           0           1           1           1           1           1           1
 AtZEff=   0.0000000   0.0000000   0.0000000   0.0000000   0.0000000   0.0000000   0.0000000   0.0000000
 NQMom=    0.0000000   0.0000000   0.0000000   0.0000000   0.0000000   0.0000000   0.0000000   0.0000000
 NMagM=    0.0000000   0.0000000   2.7928460   2.7928460   2.7928460   2.7928460   2.7928460   2.7928460
 Leave Link  101 at Wed May 26 19:10:06 2021, MaxMem=   13107200 cpu:       0.0
 (Enter /programs/64bit/g09/g09-gfortran/bin/l103.exe)

 GradGradGradGradGradGradGradGradGradGradGradGradGradGradGradGradGradGrad
 Berny optimization.
 Initialization pass.
                       ----------------------------
                       !    Initial Parameters    !
                       ! (Angstroms and Degrees)  !
 ----------------------                            ----------------------
 !      Name          Value   Derivative information (Atomic Units)     !
 ------------------------------------------------------------------------
 !       d1          1.4332   Frozen                                    !
 !       a1        178.2742   Frozen                                    !
 !       t1        119.457    Frozen                                    !
 !       d2          1.0957   Frozen                                    !
 !       a2        109.4472   Frozen                                    !
 !       t2       -178.4541   Frozen                                    !
 !       d3          1.2596   Frozen                                    !
 !       d4          1.1356   Frozen                                    !
 !       a3        108.3974   Frozen                                    !
 !       d5          1.1079   Frozen                                    !
 !       a4        108.5127   Frozen                                    !
 !       t3        179.9961   Frozen                                    !
 !       d6          1.1082   Frozen                                    !
 !       a5        108.5144   Frozen                                    !
 !       t4        120.0947   Frozen                                    !
 !       d7          1.3579   Frozen                                    !
 !       a6        178.4607   Frozen                                    !
 !       t5       -120.0      Frozen                                    !
 ------------------------------------------------------------------------
 Trust Radius=3.00D-01 FncErr=1.00D-07 GrdErr=1.00D-07
 Number of steps in this run=   2 maximum allowed number of steps=   2.
 GradGradGradGradGradGradGradGradGradGradGradGradGradGradGradGradGradGrad

 Leave Link  103 at Wed May 26 19:10:06 2021, MaxMem=   13107200 cpu:       0.0
 (Enter /programs/64bit/g09/g09-gfortran/bin/l202.exe)
                          Input orientation:                          
 ---------------------------------------------------------------------
 Center     Atomic      Atomic             Coordinates (Angstroms)
 Number     Number       Type             X           Y           Z
 ---------------------------------------------------------------------
      1          6           0        0.000000    0.000000    0.000000
      2          6           0        0.000000    0.000000    1.433172
      3          1           0        0.032999    0.000000   -1.095236
      4          1           0       -0.584096   -1.034196   -0.419369
      5          1           0       -1.077152    0.029070   -0.358397
      6          1           0       -1.050548    0.000071    1.784940
      7          1           0        0.526871   -0.909234    1.785076
      8          1           0        0.018240    0.031588    2.790576
 ---------------------------------------------------------------------
                    Distance matrix (angstroms):
                    1          2          3          4          5
     1  C    0.000000
     2  C    1.433172   0.000000
     3  H    1.095733   2.528623   0.000000
     4  H    1.259603   2.200599   1.381001   0.000000
     5  H    1.135583   2.090651   1.332746   1.173608   0.000000
     6  H    2.071150   1.107878   3.077253   2.479167   2.143699
     7  H    2.071424   1.108214   3.060525   2.471729   2.836861
     8  H    2.790814   1.357894   3.885968   3.435470   3.334055
                    6          7          8
     6  H    0.000000
     7  H    1.820739   0.000000
     8  H    1.467857   1.467951   0.000000
 Symmetry turned off by external request.
 Stoichiometry    C2H6
 Framework group  C1[X(C2H6)]
 Deg. of freedom    18
 Full point group                 C1      NOp   1
 Rotational constants (GHZ):    113.0388853     19.0032674     18.3833924
 Leave Link  202 at Wed May 26 19:10:06 2021, MaxMem=   13107200 cpu:       0.0
 (Enter /programs/64bit/g09/g09-gfortran/bin/l301.exe)
 Standard basis: 6-31+G(d,p) (6D, 7F)
 Ernie: Thresh=  0.10000D-02 Tol=  0.10000D-05 Strict=F.
 Integral buffers will be    131072 words long.
 Raffenetti 2 integral format.
 Two-electron integral symmetry is turned off.
    68 basis functions,   106 primitive gaussians,    68 cartesian basis functions
     9 alpha electrons        9 beta electrons
       nuclear repulsion energy        41.8940713981 Hartrees.
 IExCor=  402 DFT=T Ex+Corr=B3LYP ExCW=0 ScaHFX=  0.200000
 ScaDFX=  0.800000  0.720000  1.000000  0.810000 ScalE2=  1.000000  1.000000
 IRadAn=      0 IRanWt=     -1 IRanGd=            0 ICorTp=0
 NAtoms=    8 NActive=    8 NUniq=    8 SFac= 7.50D-01 NAtFMM=   80 NAOKFM=F Big=F
 Leave Link  301 at Wed May 26 19:10:06 2021, MaxMem=   13107200 cpu:       0.0
 (Enter /programs/64bit/g09/g09-gfortran/bin/l302.exe)
 NPDir=0 NMtPBC=     1 NCelOv=     1 NCel=       1 NClECP=     1 NCelD=      1
         NCelK=      1 NCelE2=     1 NClLst=     1 CellRange=     0.0.
 One-electron integrals computed using PRISM.
 NBasis=    68 RedAO= T  NBF=    68
 NBsUse=    68 1.00D-06 NBFU=    68
 Precomputing XC quadrature grid using
 IXCGrd= 2 IRadAn=           0 IRanWt=          -1 IRanGd=           0 AccXCQ= 1.00D-10.
 NRdTot=     510 NPtTot=       65100 NUsed=       68787 NTot=       68819
 NSgBfM=    68    68    68    68    68 NAtAll=     8     8.
 Leave Link  302 at Wed May 26 19:10:07 2021, MaxMem=   13107200 cpu:       0.1
 (Enter /programs/64bit/g09/g09-gfortran/bin/l303.exe)
 DipDrv:  MaxL=1.
 Leave Link  303 at Wed May 26 19:10:07 2021, MaxMem=   13107200 cpu:       0.0
 (Enter /programs/64bit/g09/g09-gfortran/bin/l401.exe)
 Harris functional with IExCor=  402 diagonalized for initial guess.
 ExpMin= 4.38D-02 ExpMax= 3.05D+03 ExpMxC= 4.57D+02 IAcc=2 IRadAn=         0 AccDes= 0.00D+00
 HarFok:  IExCor=  402 AccDes= 0.00D+00 IRadAn=         0 IDoV= 1
 ScaDFX=  1.000000  1.000000  1.000000  1.000000
 FoFCou: FMM=F IPFlag=           0 FMFlag=      100000 FMFlg1=           0
         NFxFlg=           0 DoJE=T BraDBF=F KetDBF=T FulRan=T
         Omega=  0.000000  0.000000  1.000000  0.000000  0.000000 ICntrl=     500 IOpCl=  0
         NMat0=    1 NMatS0=    1 NMatT0=    0 NMatD0=    1 NMtDS0=    0 NMtDT0=    0
         I1Cent=           4 NGrid=           0.
 Symmetry not used in FoFCou.
 Harris En= -79.5881689389690    
 Leave Link  401 at Wed May 26 19:10:07 2021, MaxMem=   13107200 cpu:       0.7
 (Enter /programs/64bit/g09/g09-gfortran/bin/l502.exe)
 Closed shell SCF:
 Requested convergence on RMS density matrix=1.00D-08 within 128 cycles.
 Requested convergence on MAX density matrix=1.00D-06.
 Requested convergence on             energy=1.00D-06.
 No special actions if energy rises.
 Using DIIS extrapolation, IDIIS=  1040.
 Two-electron integral symmetry not used.
        68702 words used for storage of precomputed grid.
 Keep R1 ints in memory in canonical form, NReq=3743087.
 IEnd=      101552 IEndB=      101552 NGot=    13107200 MDV=    10273922
 LenX=    10273922 LenY=    10268857
 Symmetry not used in FoFDir.
 MinBra= 0 MaxBra= 2 Meth= 1.
 IRaf=       0 NMat=   1 IRICut=       1 DoRegI=T DoRafI=F ISym2E= 0 JSym2E=0.

 Cycle   1  Pass 1  IDiag  1:
 E= -79.3832148654947    
 DIIS: error= 4.77D-02 at cycle   1 NSaved=   1.
 NSaved= 1 IEnMin= 1 EnMin= -79.3832148654947     IErMin= 1 ErrMin= 4.77D-02
 ErrMax= 4.77D-02 EMaxC= 1.00D-01 BMatC= 1.36D-01 BMatP= 1.36D-01
 IDIUse=3 WtCom= 5.23D-01 WtEn= 4.77D-01
 Coeff-Com:  0.100D+01
 Coeff-En:   0.100D+01
 Coeff:      0.100D+01
 Gap=     0.118 Goal=   None    Shift=    0.000
 GapD=    0.118 DampG=1.000 DampE=0.500 DampFc=0.5000 IDamp=-1.
 Damping current iteration by 5.00D-01
 RMSDP=8.02D-02 MaxDP=2.17D+00              OVMax= 3.44D-01

 Cycle   2  Pass 1  IDiag  1:
 E= -79.4128292883563     Delta-E=       -0.029614422862 Rises=F Damp=T
 DIIS: error= 2.13D-02 at cycle   2 NSaved=   2.
 NSaved= 2 IEnMin= 2 EnMin= -79.4128292883563     IErMin= 2 ErrMin= 2.13D-02
 ErrMax= 2.13D-02 EMaxC= 1.00D-01 BMatC= 2.08D-02 BMatP= 1.36D-01
 IDIUse=3 WtCom= 7.87D-01 WtEn= 2.13D-01
 Coeff-Com:  0.258D+00 0.742D+00
 Coeff-En:   0.417D+00 0.583D+00
 Coeff:      0.292D+00 0.708D+00
 Gap=     0.181 Goal=   None    Shift=    0.000
 RMSDP=3.27D-02 MaxDP=9.50D-01 DE=-2.96D-02 OVMax= 2.30D-01

 Cycle   3  Pass 1  IDiag  1:
 E= -79.5388807396052     Delta-E=       -0.126051451249 Rises=F Damp=F
 DIIS: error= 2.29D-03 at cycle   3 NSaved=   3.
 NSaved= 3 IEnMin= 3 EnMin= -79.5388807396052     IErMin= 3 ErrMin= 2.29D-03
 ErrMax= 2.29D-03 EMaxC= 1.00D-01 BMatC= 6.34D-04 BMatP= 2.08D-02
 IDIUse=3 WtCom= 9.77D-01 WtEn= 2.29D-02
 Coeff-Com:  0.671D-01 0.131D+00 0.802D+00
 Coeff-En:   0.000D+00 0.000D+00 0.100D+01
 Coeff:      0.656D-01 0.128D+00 0.806D+00
 Gap=     0.178 Goal=   None    Shift=    0.000
 RMSDP=1.36D-03 MaxDP=2.41D-02 DE=-1.26D-01 OVMax= 1.12D-02

 Cycle   4  Pass 1  IDiag  1:
 E= -79.5395009160283     Delta-E=       -0.000620176423 Rises=F Damp=F
 DIIS: error= 8.36D-04 at cycle   4 NSaved=   4.
 NSaved= 4 IEnMin= 4 EnMin= -79.5395009160283     IErMin= 4 ErrMin= 8.36D-04
 ErrMax= 8.36D-04 EMaxC= 1.00D-01 BMatC= 6.17D-05 BMatP= 6.34D-04
 IDIUse=3 WtCom= 9.92D-01 WtEn= 8.36D-03
 Coeff-Com:  0.809D-02-0.108D-01 0.227D+00 0.776D+00
 Coeff-En:   0.000D+00 0.000D+00 0.000D+00 0.100D+01
 Coeff:      0.802D-02-0.107D-01 0.225D+00 0.778D+00
 Gap=     0.178 Goal=   None    Shift=    0.000
 RMSDP=5.34D-04 MaxDP=1.20D-02 DE=-6.20D-04 OVMax= 3.28D-03

 Cycle   5  Pass 1  IDiag  1:
 E= -79.5395694420461     Delta-E=       -0.000068526018 Rises=F Damp=F
 DIIS: error= 2.02D-04 at cycle   5 NSaved=   5.
 NSaved= 5 IEnMin= 5 EnMin= -79.5395694420461     IErMin= 5 ErrMin= 2.02D-04
 ErrMax= 2.02D-04 EMaxC= 1.00D-01 BMatC= 3.14D-06 BMatP= 6.17D-05
 IDIUse=3 WtCom= 9.98D-01 WtEn= 2.02D-03
 Coeff-Com:  0.281D-02-0.732D-02 0.662D-01 0.280D+00 0.658D+00
 Coeff-En:   0.000D+00 0.000D+00 0.000D+00 0.000D+00 0.100D+01
 Coeff:      0.281D-02-0.731D-02 0.661D-01 0.280D+00 0.659D+00
 Gap=     0.178 Goal=   None    Shift=    0.000
 RMSDP=4.50D-05 MaxDP=6.29D-04 DE=-6.85D-05 OVMax= 6.73D-04

 Cycle   6  Pass 1  IDiag  1:
 E= -79.5395724244741     Delta-E=       -0.000002982428 Rises=F Damp=F
 DIIS: error= 8.41D-05 at cycle   6 NSaved=   6.
 NSaved= 6 IEnMin= 6 EnMin= -79.5395724244741     IErMin= 6 ErrMin= 8.41D-05
 ErrMax= 8.41D-05 EMaxC= 1.00D-01 BMatC= 3.95D-07 BMatP= 3.14D-06
 IDIUse=1 WtCom= 1.00D+00 WtEn= 0.00D+00
 Coeff-Com:  0.127D-02-0.295D-02 0.184D-01 0.829D-01 0.313D+00 0.588D+00
 Coeff:      0.127D-02-0.295D-02 0.184D-01 0.829D-01 0.313D+00 0.588D+00
 Gap=     0.178 Goal=   None    Shift=    0.000
 RMSDP=2.19D-05 MaxDP=4.18D-04 DE=-2.98D-06 OVMax= 2.33D-04

 Cycle   7  Pass 1  IDiag  1:
 E= -79.5395728057080     Delta-E=       -0.000000381234 Rises=F Damp=F
 DIIS: error= 1.19D-05 at cycle   7 NSaved=   7.
 NSaved= 7 IEnMin= 7 EnMin= -79.5395728057080     IErMin= 7 ErrMin= 1.19D-05
 ErrMax= 1.19D-05 EMaxC= 1.00D-01 BMatC= 2.39D-08 BMatP= 3.95D-07
 IDIUse=1 WtCom= 1.00D+00 WtEn= 0.00D+00
 Coeff-Com:  0.395D-03-0.625D-03 0.191D-02 0.797D-02 0.607D-01 0.227D+00
 Coeff-Com:  0.703D+00
 Coeff:      0.395D-03-0.625D-03 0.191D-02 0.797D-02 0.607D-01 0.227D+00
 Coeff:      0.703D+00
 Gap=     0.178 Goal=   None    Shift=    0.000
 RMSDP=4.62D-06 MaxDP=7.99D-05 DE=-3.81D-07 OVMax= 1.08D-04

 Cycle   8  Pass 1  IDiag  1:
 E= -79.5395728349290     Delta-E=       -0.000000029221 Rises=F Damp=F
 DIIS: error= 3.28D-06 at cycle   8 NSaved=   8.
 NSaved= 8 IEnMin= 8 EnMin= -79.5395728349290     IErMin= 8 ErrMin= 3.28D-06
 ErrMax= 3.28D-06 EMaxC= 1.00D-01 BMatC= 1.01D-09 BMatP= 2.39D-08
 IDIUse=1 WtCom= 1.00D+00 WtEn= 0.00D+00
 Coeff-Com:  0.644D-04-0.705D-04-0.424D-03-0.227D-02 0.268D-03 0.261D-01
 Coeff-Com:  0.220D+00 0.756D+00
 Coeff:      0.644D-04-0.705D-04-0.424D-03-0.227D-02 0.268D-03 0.261D-01
 Coeff:      0.220D+00 0.756D+00
 Gap=     0.178 Goal=   None    Shift=    0.000
 RMSDP=1.39D-06 MaxDP=2.16D-05 DE=-2.92D-08 OVMax= 1.98D-05

 Cycle   9  Pass 1  IDiag  1:
 E= -79.5395728363179     Delta-E=       -0.000000001389 Rises=F Damp=F
 DIIS: error= 4.49D-07 at cycle   9 NSaved=   9.
 NSaved= 9 IEnMin= 9 EnMin= -79.5395728363179     IErMin= 9 ErrMin= 4.49D-07
 ErrMax= 4.49D-07 EMaxC= 1.00D-01 BMatC= 1.08D-11 BMatP= 1.01D-09
 IDIUse=1 WtCom= 1.00D+00 WtEn= 0.00D+00
 Coeff-Com: -0.590D-05 0.902D-05-0.783D-04-0.492D-03-0.269D-02-0.727D-02
 Coeff-Com:  0.111D-01 0.123D+00 0.876D+00
 Coeff:     -0.590D-05 0.902D-05-0.783D-04-0.492D-03-0.269D-02-0.727D-02
 Coeff:      0.111D-01 0.123D+00 0.876D+00
 Gap=     0.178 Goal=   None    Shift=    0.000
 RMSDP=6.22D-07 MaxDP=1.35D-05 DE=-1.39D-09 OVMax= 4.13D-06

 Cycle  10  Pass 1  IDiag  1:
 E= -79.5395728363362     Delta-E=       -0.000000000018 Rises=F Damp=F
 DIIS: error= 5.21D-08 at cycle  10 NSaved=  10.
 NSaved=10 IEnMin=10 EnMin= -79.5395728363362     IErMin=10 ErrMin= 5.21D-08
 ErrMax= 5.21D-08 EMaxC= 1.00D-01 BMatC= 3.89D-13 BMatP= 1.08D-11
 IDIUse=1 WtCom= 1.00D+00 WtEn= 0.00D+00
 Coeff-Com: -0.118D-05 0.101D-05 0.954D-06-0.128D-04-0.154D-03-0.458D-03
 Coeff-Com: -0.132D-02-0.183D-01 0.529D-01 0.967D+00
 Coeff:     -0.118D-05 0.101D-05 0.954D-06-0.128D-04-0.154D-03-0.458D-03
 Coeff:     -0.132D-02-0.183D-01 0.529D-01 0.967D+00
 Gap=     0.178 Goal=   None    Shift=    0.000
 RMSDP=6.44D-08 MaxDP=1.42D-06 DE=-1.83D-11 OVMax= 3.42D-07

 Cycle  11  Pass 1  IDiag  1:
 E= -79.5395728363368     Delta-E=       -0.000000000001 Rises=F Damp=F
 DIIS: error= 1.43D-08 at cycle  11 NSaved=  11.
 NSaved=11 IEnMin=11 EnMin= -79.5395728363368     IErMin=11 ErrMin= 1.43D-08
 ErrMax= 1.43D-08 EMaxC= 1.00D-01 BMatC= 1.53D-14 BMatP= 3.89D-13
 IDIUse=1 WtCom= 1.00D+00 WtEn= 0.00D+00
 Coeff-Com:  0.479D-08 0.390D-07 0.145D-05 0.468D-05 0.291D-04 0.104D-03
 Coeff-Com: -0.391D-03-0.783D-02-0.140D-01 0.145D+00 0.878D+00
 Coeff:      0.479D-08 0.390D-07 0.145D-05 0.468D-05 0.291D-04 0.104D-03
 Coeff:     -0.391D-03-0.783D-02-0.140D-01 0.145D+00 0.878D+00
 Gap=     0.178 Goal=   None    Shift=    0.000
 RMSDP=1.16D-08 MaxDP=2.35D-07 DE=-5.40D-13 OVMax= 5.85D-08

 Cycle  12  Pass 1  IDiag  1:
 E= -79.5395728363370     Delta-E=       -0.000000000000 Rises=F Damp=F
 DIIS: error= 9.87D-10 at cycle  12 NSaved=  12.
 NSaved=12 IEnMin=12 EnMin= -79.5395728363370     IErMin=12 ErrMin= 9.87D-10
 ErrMax= 9.87D-10 EMaxC= 1.00D-01 BMatC= 1.38D-16 BMatP= 1.53D-14
 IDIUse=1 WtCom= 1.00D+00 WtEn= 0.00D+00
 Coeff-Com:  0.239D-07-0.853D-09 0.302D-06 0.125D-05 0.900D-05 0.277D-04
 Coeff-Com: -0.474D-04-0.136D-02-0.341D-02 0.150D-01 0.172D+00 0.818D+00
 Coeff:      0.239D-07-0.853D-09 0.302D-06 0.125D-05 0.900D-05 0.277D-04
 Coeff:     -0.474D-04-0.136D-02-0.341D-02 0.150D-01 0.172D+00 0.818D+00
 Gap=     0.178 Goal=   None    Shift=    0.000
 RMSDP=1.98D-09 MaxDP=4.18D-08 DE=-2.27D-13 OVMax= 9.05D-09

 SCF Done:  E(RB3LYP) =  -79.5395728363     A.U. after   12 cycles
             Convg  =    0.1978D-08             -V/T =  2.0112
 KE= 7.865927057643D+01 PE=-2.665409329457D+02 EE= 6.644801813481D+01
 Leave Link  502 at Wed May 26 19:10:15 2021, MaxMem=   13107200 cpu:       8.0
 (Enter /programs/64bit/g09/g09-gfortran/bin/l601.exe)
 Copying SCF densities to generalized density rwf, IOpCl= 0 IROHF=0.

 **********************************************************************

            Population analysis using the SCF density.

 **********************************************************************

 Alpha  occ. eigenvalues --  -10.22295 -10.21839  -0.79436  -0.67149  -0.49659
 Alpha  occ. eigenvalues --   -0.44244  -0.36979  -0.28485  -0.22961
 Alpha virt. eigenvalues --   -0.05174  -0.00681   0.02831   0.05113   0.06055
 Alpha virt. eigenvalues --    0.07444   0.08835   0.09522   0.11923   0.14820
 Alpha virt. eigenvalues --    0.17650   0.20587   0.22653   0.26846   0.41863
 Alpha virt. eigenvalues --    0.65658   0.66499   0.69104   0.69696   0.73917
 Alpha virt. eigenvalues --    0.81371   0.82795   0.86015   0.92137   0.93657
 Alpha virt. eigenvalues --    0.97833   1.06312   1.14802   1.23104   1.27962
 Alpha virt. eigenvalues --    1.32534   1.60573   1.69772   1.73540   1.79470
 Alpha virt. eigenvalues --    1.90185   1.95322   1.96330   2.10169   2.15604
 Alpha virt. eigenvalues --    2.18846   2.25777   2.39469   2.41045   2.48700
 Alpha virt. eigenvalues --    2.54239   2.62867   2.74650   2.75838   2.81646
 Alpha virt. eigenvalues --    2.96604   3.02174   3.03746   3.25125   3.28914
 Alpha virt. eigenvalues --    3.39863   3.71716   4.28029   4.92072
          Condensed to atoms (all electrons):
              1          2          3          4          5          6
     1  C    5.694578  -0.154361   0.366162   0.410520   0.246567  -0.142935
     2  C   -0.154361   5.562942   0.037479  -0.186947  -0.006396   0.492880
     3  H    0.366162   0.037479   0.578213  -0.087541  -0.074494   0.005233
     4  H    0.410520  -0.186947  -0.087541   0.914249  -0.060112  -0.008122
     5  H    0.246567  -0.006396  -0.074494  -0.060112   0.828565  -0.030194
     6  H   -0.142935   0.492880   0.005233  -0.008122  -0.030194   0.629995
     7  H   -0.204908   0.524399   0.002193  -0.027472   0.009862  -0.030741
     8  H    0.148715   0.142795  -0.000513   0.005197   0.000449  -0.063487
              7          8
     1  C   -0.204908   0.148715
     2  C    0.524399   0.142795
     3  H    0.002193  -0.000513
     4  H   -0.027472   0.005197
     5  H    0.009862   0.000449
     6  H   -0.030741  -0.063487
     7  H    0.648951  -0.070481
     8  H   -0.070481   0.655012
 Mulliken atomic charges:
              1
     1  C   -0.364337
     2  C   -0.412792
     3  H    0.173266
     4  H    0.040228
     5  H    0.085752
     6  H    0.147371
     7  H    0.148197
     8  H    0.182315
 Sum of Mulliken atomic charges =  -0.00000
 Mulliken charges with hydrogens summed into heavy atoms:
              1
     1  C   -0.065091
     2  C    0.065091
 Sum of Mulliken charges with hydrogens summed into heavy atoms =  -0.00000
 Electronic spatial extent (au):  <R**2>=            152.2246
 Charge=             -0.0000 electrons
 Dipole moment (field-independent basis, Debye):
    X=             -1.1434    Y=             -0.8961    Z=              0.2404  Tot=              1.4725
 Quadrupole moment (field-independent basis, Debye-Ang):
   XX=            -16.3318   YY=            -18.4252   ZZ=            -12.5905
   XY=             -0.1230   XZ=             -0.3826   YZ=             -1.4579
 Traceless Quadrupole moment (field-independent basis, Debye-Ang):
   XX=             -0.5493   YY=             -2.6427   ZZ=              3.1920
   XY=             -0.1230   XZ=             -0.3826   YZ=             -1.4579
 Octapole moment (field-independent basis, Debye-Ang**2):
  XXX=              3.9000  YYY=              4.5447  ZZZ=            -28.4082  XYY=              1.7999
  XXY=              0.8862  XXZ=            -11.8425  XZZ=             -2.1068  YZZ=             -3.9795
  YYZ=            -13.1971  XYZ=             -1.6211
 Hexadecapole moment (field-independent basis, Debye-Ang**3):
 XXXX=            -34.0623 YYYY=            -36.2521 ZZZZ=           -144.1508 XXXY=             -0.6258
 XXXZ=             -1.0554 YYYX=             -1.0754 YYYZ=             -0.5258 ZZZX=             -7.4694
 ZZZY=            -12.3232 XXYY=            -11.7180 XXZZ=            -34.7855 YYZZ=            -38.3956
 XXYZ=              0.0748 YYXZ=              0.2137 ZZXY=             -2.5820
 N-N= 4.189407139809D+01 E-N=-2.665409329572D+02  KE= 7.865927057643D+01
 No NMR shielding tensors so no spin-rotation constants.
 Leave Link  601 at Wed May 26 19:10:16 2021, MaxMem=   13107200 cpu:       0.0
 (Enter /programs/64bit/g09/g09-gfortran/bin/l701.exe)
 Compute integral first derivatives.
 ... and contract with generalized density number  0.
 Leave Link  701 at Wed May 26 19:10:16 2021, MaxMem=   13107200 cpu:       0.1
 (Enter /programs/64bit/g09/g09-gfortran/bin/l702.exe)
 L702 exits ... SP integral derivatives will be done elsewhere.
 Leave Link  702 at Wed May 26 19:10:16 2021, MaxMem=   13107200 cpu:       0.0
 (Enter /programs/64bit/g09/g09-gfortran/bin/l703.exe)
 Compute integral first derivatives, UseDBF=F ICtDFT=           0.
 Integral derivatives from FoFDir, PRISM(SPDF).
 Calling FoFJK, ICntrl=      2127 FMM=F ISym2X=0 I1Cent= 0 IOpClX= 0 NMat=1 NMatS=1 NMatT=0.
 FoFCou: FMM=F IPFlag=           0 FMFlag=      100000 FMFlg1=         800
         NFxFlg=           0 DoJE=F BraDBF=F KetDBF=F FulRan=T
         Omega=  0.000000  0.000000  1.000000  0.000000  0.000000 ICntrl=    2127 IOpCl=  0
         NMat0=    1 NMatS0=    1 NMatT0=    0 NMatD0=    1 NMtDS0=    0 NMtDT0=    0
         I1Cent=           0 NGrid=           0.
 Symmetry not used in FoFCou.
 Leave Link  703 at Wed May 26 19:10:17 2021, MaxMem=   13107200 cpu:       1.4
 (Enter /programs/64bit/g09/g09-gfortran/bin/l716.exe)
 Dipole        =-4.49841162D-01-3.52559278D-01 9.45714351D-02
 -------------------------------------------------------------------
 Center     Atomic                   Forces (Hartrees/Bohr)
 Number     Number              X              Y              Z
 -------------------------------------------------------------------
      1        6          -0.109404459   -0.053243805   -0.116789142
      2        6          -0.011725995   -0.055755425    0.135970071
      3        1           0.081131677    0.047528486    0.000577463
      4        1           0.040969472   -0.015670213    0.043440632
      5        1          -0.019858533    0.050070878    0.029513791
      6        1          -0.002742035   -0.021752150   -0.021692140
      7        1          -0.015586576   -0.016036740   -0.017557394
      8        1           0.037216448    0.064858969   -0.053463281
 -------------------------------------------------------------------
 Cartesian Forces:  Max     0.135970071 RMS     0.056573310
 -----------------------------------------------------------------------------------------------
                       Internal Coordinate Forces (Hartree/Bohr or radian)
  Cent   Atom   N1       Length/X         N2         Alpha/Y        N3         Beta/Z          J
 -----------------------------------------------------------------------------------------------
      1  C 
      2  C        1   0.043257(     1)
      3  H        1   0.001866(     2)      2  -0.167954(     8)
      4  H        1  -0.020595(     3)      2  -0.092349(     9)      3  -0.097365(    14)     0
      5  H        1   0.010804(     4)      2  -0.074457(    10)      3   0.100829(    15)     0
      6  H        2  -0.004289(     5)      1  -0.044886(    11)      3   0.000450(    16)     0
      7  H        2   0.000172(     6)      1  -0.038896(    12)      6  -0.042748(    17)     0
      8  H        2  -0.051435(     7)      1  -0.195499(    13)      6   0.000014(    18)     0
 -----------------------------------------------------------------------------------------------
 Internal  Forces:  Max     0.195499177 RMS     0.078380158
 Force constants in Cartesian coordinates: 
                1             2             3             4             5 
      1  0.744913D+01
      2 -0.924761D+01  0.484657D+02
      3  0.105570D+00  0.513943D-01  0.920490D+00
      4 -0.143711D+02  0.191011D+02  0.366964D-01  0.301317D+02
      5  0.105394D+02 -0.297068D+02  0.199255D-01 -0.218806D+02  0.233281D+02
      6 -0.128851D-01 -0.223435D-01 -0.405370D+00 -0.605934D-01 -0.104994D+00
      7 -0.118985D+00  0.222851D-03 -0.422913D-01  0.344684D-01 -0.328468D-02
      8  0.312122D+01 -0.243139D+02 -0.259518D-01 -0.633231D+01  0.133923D+02
      9  0.670688D-02  0.671445D-05 -0.342859D+00  0.103853D-02 -0.989667D-04
     10 -0.161148D-01 -0.120849D+00 -0.318372D-01 -0.143642D+00  0.876968D-01
     11 -0.959335D-01 -0.119201D+00 -0.355058D-01  0.857939D-01 -0.412251D-01
     12 -0.304016D-01 -0.501793D-01 -0.758988D-01 -0.115103D-01 -0.204796D-01
     13 -0.276170D+00  0.838811D-02 -0.681374D-01  0.139578D-01 -0.294638D-02
     14 -0.113528D+00 -0.459940D-02 -0.986227D-02  0.193873D+00 -0.101123D+00
     15 -0.818748D-01 -0.122180D-02 -0.963629D-01 -0.262246D-01  0.653056D-03
     16  0.897407D-02 -0.333057D-04  0.000000D+00 -0.298238D+00  0.653594D-02
     17 -0.409452D-02 -0.216524D+00  0.000000D+00 -0.205188D-01  0.194852D-01
     18  0.268017D-01 -0.555369D-04  0.000000D+00  0.896580D-01  0.194489D-01
     19  0.141222D-01  0.197832D+00  0.000000D+00 -0.129669D+00 -0.102608D-01
     20  0.296613D-02  0.123599D+00  0.000000D+00  0.103999D+00 -0.300077D+00
     21 -0.134800D-01  0.231554D-01  0.000000D+00 -0.280820D-01  0.872467D-01
     22  0.731017D+01 -0.993906D+01  0.000000D+00 -0.152374D+02  0.112635D+02
     23 -0.420243D+01  0.577172D+01  0.000000D+00  0.874866D+01 -0.659064D+01
     24 -0.436586D-03 -0.756337D-03  0.000000D+00 -0.982570D-03 -0.170125D-02
                6             7             8             9            10 
      6  0.794848D+00
      7  0.000000D+00  0.920959D-01
      8  0.000000D+00  0.109083D-01  0.127701D+02
      9  0.000000D+00 -0.751705D-02  0.328665D-03  0.341358D+00
     10  0.000000D+00  0.381271D-02 -0.927090D-02  0.114876D-03  0.793103D-01
     11  0.000000D+00 -0.844748D-02 -0.550092D-02 -0.254521D-03  0.617566D-01
     12  0.000000D+00  0.155218D-01  0.264782D-01  0.467668D-03  0.266658D-01
     13  0.000000D+00 -0.113918D-01  0.557992D-03 -0.343234D-03 -0.994405D-03
     14  0.000000D+00  0.601009D-03  0.101337D-01  0.181083D-04  0.254939D-01
     15  0.000000D+00  0.342866D-01 -0.855076D-03  0.103305D-02  0.505649D-02
     16  0.715613D-01  0.000000D+00  0.905418D-05  0.000000D+00  0.000000D+00
     17  0.287023D-01  0.000000D+00  0.133277D+00  0.000000D+00  0.322417D-02
     18 -0.114547D+00  0.000000D+00  0.000000D+00  0.000000D+00  0.000000D+00
     19 -0.110033D-01  0.000000D+00 -0.115282D+00  0.000000D+00 -0.278884D-02
     20  0.762286D-01  0.000000D+00 -0.668018D-01  0.000000D+00 -0.161604D-02
     21 -0.114469D+00  0.000000D+00  0.000000D+00  0.000000D+00  0.000000D+00
     22  0.129205D-01  0.000000D+00  0.332417D+01  0.000000D+00  0.804167D-01
     23  0.224069D-01  0.000000D+00 -0.191951D+01  0.000000D+00 -0.464359D-01
     24 -0.160462D+00  0.000000D+00  0.000000D+00  0.000000D+00  0.000000D+00
               11            12            13            14            15 
     11  0.157060D+00
     12  0.391186D-01  0.741920D-01
     13  0.673413D-03 -0.275682D-03  0.277249D+00
     14 -0.164512D-01  0.506206D-02 -0.820409D-02  0.553124D-01
     15 -0.335829D-02  0.123914D-02  0.687563D-01  0.478211D-02  0.940907D-01
     16  0.000000D+00  0.000000D+00  0.000000D+00  0.000000D+00  0.000000D+00
     17 -0.182096D-02  0.000000D+00 -0.110112D-03 -0.408006D-02  0.000000D+00
     18  0.000000D+00  0.000000D+00  0.000000D+00  0.000000D+00  0.000000D+00
     19  0.157509D-02  0.000000D+00  0.952441D-04  0.352916D-02  0.000000D+00
     20  0.912710D-03  0.000000D+00  0.551908D-04  0.204503D-02  0.000000D+00
     21  0.000000D+00  0.000000D+00  0.000000D+00  0.000000D+00  0.000000D+00
     22 -0.454179D-01  0.000000D+00 -0.274638D-02 -0.101764D+00  0.000000D+00
     23  0.262262D-01  0.000000D+00  0.158587D-02  0.587627D-01  0.000000D+00
     24  0.000000D+00  0.000000D+00  0.000000D+00  0.000000D+00  0.000000D+00
               16            17            18            19            20 
     16  0.303387D+00
     17 -0.467854D-02  0.511941D-01
     18 -0.742741D-01 -0.139162D-01  0.106442D+00
     19 -0.466189D-02  0.269897D-01 -0.139281D-01  0.118525D+00
     20 -0.170186D-02  0.998900D-02 -0.508458D-02 -0.111588D+00  0.235695D+00
     21  0.258260D-02 -0.145998D-01  0.771582D-02  0.251579D-01 -0.711628D-01
     22 -0.946187D-02 -0.811819D-03 -0.282575D-01  0.437817D-02  0.788639D-02
     23 -0.130887D-03  0.847925D-02 -0.392610D-03  0.720494D-02 -0.536131D-02
     24  0.130188D-03 -0.186408D-03  0.388842D-03 -0.226494D-03  0.187883D-04
               21            22            23            24 
     21  0.106366D+00
     22  0.138215D-01  0.785463D+01
     23 -0.246395D-01 -0.450845D+01  0.265032D+01
     24  0.387650D-03  0.151546D-02  0.262521D-02  0.159686D+00
 Force constants in internal coordinates: 
                1             2             3             4             5 
      1  0.405370D+00
      2  0.000000D+00  0.341585D+00
      3  0.000000D+00  0.000000D+00  0.207802D+00
      4  0.000000D+00  0.000000D+00  0.000000D+00  0.300348D+00
      5  0.000000D+00  0.000000D+00  0.000000D+00  0.000000D+00  0.328257D+00
      6  0.000000D+00  0.000000D+00  0.000000D+00  0.000000D+00  0.000000D+00
      7  0.000000D+00  0.000000D+00  0.000000D+00  0.000000D+00  0.000000D+00
      8  0.000000D+00  0.000000D+00  0.000000D+00  0.000000D+00  0.000000D+00
      9  0.000000D+00  0.000000D+00  0.000000D+00  0.000000D+00  0.000000D+00
     10  0.000000D+00  0.000000D+00  0.000000D+00  0.000000D+00  0.000000D+00
     11  0.000000D+00  0.000000D+00  0.000000D+00  0.000000D+00  0.000000D+00
     12  0.000000D+00  0.000000D+00  0.000000D+00  0.000000D+00  0.000000D+00
     13  0.000000D+00  0.000000D+00  0.000000D+00  0.000000D+00  0.000000D+00
     14  0.000000D+00  0.000000D+00  0.000000D+00  0.000000D+00  0.000000D+00
     15  0.000000D+00  0.000000D+00  0.000000D+00  0.000000D+00  0.000000D+00
     16  0.000000D+00  0.000000D+00  0.000000D+00  0.000000D+00  0.000000D+00
     17  0.000000D+00  0.000000D+00  0.000000D+00  0.000000D+00  0.000000D+00
     18  0.000000D+00  0.000000D+00  0.000000D+00  0.000000D+00  0.000000D+00
                6             7             8             9            10 
      6  0.327899D+00
      7  0.000000D+00  0.159767D+00
      8  0.000000D+00  0.000000D+00  0.393893D+00
      9  0.000000D+00  0.000000D+00  0.811683D-01  0.325987D+00
     10  0.000000D+00  0.000000D+00  0.160630D+00  0.707404D-02  0.328218D+00
     11  0.000000D+00  0.000000D+00  0.000000D+00  0.000000D+00  0.000000D+00
     12  0.000000D+00  0.000000D+00  0.000000D+00  0.000000D+00  0.000000D+00
     13  0.000000D+00  0.000000D+00  0.000000D+00  0.000000D+00  0.000000D+00
     14  0.000000D+00  0.000000D+00  0.347518D-01  0.225571D-01  0.307318D-01
     15  0.000000D+00  0.000000D+00 -0.123790D-02 -0.259722D-01 -0.305559D-01
     16  0.000000D+00  0.000000D+00  0.000000D+00  0.000000D+00  0.000000D+00
     17  0.000000D+00  0.000000D+00  0.000000D+00  0.000000D+00  0.000000D+00
     18  0.000000D+00  0.000000D+00  0.000000D+00  0.000000D+00  0.000000D+00
               11            12            13            14            15 
     11  0.357541D+00
     12  0.376228D-01  0.357538D+00
     13  0.820103D-01  0.817845D-01  0.308696D+00
     14  0.000000D+00  0.000000D+00  0.000000D+00  0.227836D+00
     15  0.000000D+00  0.000000D+00  0.000000D+00 -0.138232D+00  0.228180D+00
     16  0.698777D-03 -0.699442D-03 -0.364399D-04  0.494988D-01  0.494988D-01
     17 -0.640134D-01 -0.610131D-01 -0.353888D-01  0.164996D-01  0.164996D-01
     18  0.369416D-02 -0.369777D-02  0.250808D-05  0.164996D-01  0.164996D-01
               16            17            18 
     16  0.226900D+00
     17  0.892822D-01  0.201764D+00
     18  0.483363D-01 -0.675024D-03  0.496878D-01
 Leave Link  716 at Wed May 26 19:10:17 2021, MaxMem=   13107200 cpu:       0.0
 (Enter /programs/64bit/g09/g09-gfortran/bin/l103.exe)

 GradGradGradGradGradGradGradGradGradGradGradGradGradGradGradGradGradGrad
 Berny optimization.
 Search for a local minimum.
 Step number   1 out of a maximum of    2
 All quantities printed in internal units (Hartrees-Bohrs-Radians)
 Second derivative matrix not updated -- first step.
 The second derivative matrix:
                          d1        a1        t1        d2        a2
           d1           0.40537
           a1           0.00000   0.39389
           t1          -0.00000   0.03475   0.22784
           d2           0.00000  -0.00000  -0.00000   0.34158
           a2           0.00000   0.08117   0.02256  -0.00000   0.32599
           t2          -0.00000  -0.00124  -0.13823   0.00000  -0.02597
           d3          -0.00000   0.00000   0.00000  -0.00000   0.00000
           d4           0.00000  -0.00000  -0.00000   0.00000  -0.00000
           a3          -0.00000   0.16063   0.03073  -0.00000   0.00707
           d5          -0.00000   0.00000  -0.00000   0.00000  -0.00000
           a4           0.00000   0.00000   0.00000   0.00000   0.00000
           t3           0.00000   0.00000   0.04950   0.00000  -0.00000
           d6          -0.00000   0.00000   0.00000   0.00000   0.00000
           a5          -0.00000   0.00000  -0.00000   0.00000  -0.00000
           t4           0.00000   0.00000   0.01650   0.00000   0.00000
           d7          -0.00000   0.00000  -0.00000   0.00000  -0.00000
           a6          -0.00000   0.00000  -0.00000   0.00000   0.00000
           t5          -0.00000   0.00000   0.01650   0.00000  -0.00000
                          t2        d3        d4        a3        d5
           t2           0.22818
           d3          -0.00000   0.20780
           d4           0.00000  -0.00000   0.30035
           a3          -0.03056  -0.00000   0.00000   0.32822
           d5           0.00000  -0.00000   0.00000  -0.00000   0.32826
           a4           0.00000  -0.00000  -0.00000  -0.00000   0.00000
           t3           0.04950   0.00000  -0.00000   0.00000   0.00000
           d6          -0.00000  -0.00000  -0.00000   0.00000  -0.00000
           a5           0.00000   0.00000   0.00000  -0.00000   0.00000
           t4           0.01650  -0.00000  -0.00000   0.00000  -0.00000
           d7          -0.00000   0.00000  -0.00000   0.00000   0.00000
           a6           0.00000  -0.00000   0.00000  -0.00000  -0.00000
           t5           0.01650   0.00000   0.00000   0.00000   0.00000
                          a4        t3        d6        a5        t4
           a4           0.35754
           t3           0.00070   0.22690
           d6          -0.00000   0.00000   0.32790
           a5           0.03762  -0.00070   0.00000   0.35754
           t4          -0.06401   0.08928   0.00000  -0.06101   0.20176
           d7           0.00000  -0.00000  -0.00000   0.00000   0.00000
           a6           0.08201  -0.00004  -0.00000   0.08178  -0.03539
           t5           0.00369   0.04834   0.00000  -0.00370  -0.00068
                          d7        a6        t5
           d7           0.15977
           a6          -0.00000   0.30870
           t5          -0.00000   0.00000   0.04969
     Eigenvalues --- 1000.000001000.000001000.000001000.000001000.00000
     Eigenvalues --- 1000.000001000.000001000.000001000.000001000.00000
     Eigenvalues --- 1000.000001000.000001000.000001000.000001000.00000
     Eigenvalues --- 1000.000001000.000001000.00000
 Angle between quadratic step and forces=  90.00 degrees.
 Linear search not attempted -- first point.
 Variable       Old X    -DE/DX   Delta X   Delta X   Delta X     New X
                                 (Linear)    (Quad)   (Total)
    d1        2.70830   0.04326   0.00000   0.00000   0.00000   2.70830
    a1        3.11147  -0.16795   0.00000   0.00000   0.00000   3.11147
    t1        2.08492  -0.09737   0.00000   0.00000   0.00000   2.08492
    d2        2.07063   0.00187   0.00000   0.00000   0.00000   2.07063
    a2        1.91021  -0.09235   0.00000   0.00000   0.00000   1.91021
    t2       -3.11461   0.10083   0.00000   0.00000   0.00000  -3.11461
    d3        2.38031  -0.02060   0.00000   0.00000   0.00000   2.38031
    d4        2.14594   0.01080   0.00000   0.00000   0.00000   2.14594
    a3        1.89189  -0.07446   0.00000   0.00000   0.00000   1.89189
    d5        2.09359  -0.00429   0.00000   0.00000   0.00000   2.09359
    a4        1.89390  -0.04489   0.00000   0.00000   0.00000   1.89390
    t3        3.14152   0.00045   0.00000   0.00000   0.00000   3.14152
    d6        2.09422   0.00017   0.00000   0.00000   0.00000   2.09422
    a5        1.89393  -0.03890   0.00000   0.00000   0.00000   1.89393
    t4        2.09605  -0.04275   0.00000   0.00000   0.00000   2.09605
    d7        2.56605  -0.05144   0.00000   0.00000   0.00000   2.56605
    a6        3.11473  -0.19550   0.00000   0.00000   0.00000   3.11473
    t5       -2.09440   0.00001   0.00000   0.00000   0.00000  -2.09440
         Item               Value     Threshold  Converged?
 Maximum Force            0.000000     0.000450     YES
 RMS     Force            0.000000     0.000300     YES
 Maximum Displacement     0.000000     0.001800     YES
 RMS     Displacement     0.000000     0.001200     YES
 Predicted change in Energy=-0.000000D+00
 Optimization completed.
    -- Stationary point found.
                       ----------------------------
                       !   Optimized Parameters   !
                       ! (Angstroms and Degrees)  !
 ----------------------                            ----------------------
 !      Name          Value   Derivative information (Atomic Units)     !
 ------------------------------------------------------------------------
 !       d1          1.4332   -DE/DX =    0.0433                        !
 !       a1        178.2742   -DE/DX =   -0.168                         !
 !       t1        119.457    -DE/DX =   -0.0974                        !
 !       d2          1.0957   -DE/DX =    0.0019                        !
 !       a2        109.4472   -DE/DX =   -0.0923                        !
 !       t2       -178.4541   -DE/DX =    0.1008                        !
 !       d3          1.2596   -DE/DX =   -0.0206                        !
 !       d4          1.1356   -DE/DX =    0.0108                        !
 !       a3        108.3974   -DE/DX =   -0.0745                        !
 !       d5          1.1079   -DE/DX =   -0.0043                        !
 !       a4        108.5127   -DE/DX =   -0.0449                        !
 !       t3        179.9961   -DE/DX =    0.0005                        !
 !       d6          1.1082   -DE/DX =    0.0002                        !
 !       a5        108.5144   -DE/DX =   -0.0389                        !
 !       t4        120.0947   -DE/DX =   -0.0427                        !
 !       d7          1.3579   -DE/DX =   -0.0514                        !
 !       a6        178.4607   -DE/DX =   -0.1955                        !
 !       t5       -120.0      -DE/DX =    0.0                           !
 ------------------------------------------------------------------------
 GradGradGradGradGradGradGradGradGradGradGradGradGradGradGradGradGradGrad

 Leave Link  103 at Wed May 26 19:10:17 2021, MaxMem=   13107200 cpu:       0.0
 (Enter /programs/64bit/g09/g09-gfortran/bin/l9999.exe)
 1\1\GINC-MOLMOD\Force\RB3LYP\6-31+G(d,p)\C2H6\OSPITE\26-May-2021\1\\#p
  b3lyp/6-31+g(d,p) force nosym\\c2h6 molecule\\0,1\C\C,1,d1\H,1,d2,2,a
 1\H,1,d3,2,a2,3,t1,0\H,1,d4,2,a3,3,t2,0\H,2,d5,1,a4,3,t3,0\H,2,d6,1,a5
 ,6,t4,0\H,2,d7,1,a6,6,t5,0\\d1=1.4331716\a1=178.27421101\t1=119.457014
 22\d2=1.09573281\a2=109.44716422\t2=-178.4540901\d3=1.25960349\d4=1.13
 55833\a3=108.39742548\d5=1.10787776\a4=108.51274708\t3=179.99610761\d6
 =1.10821354\a5=108.51435983\t4=120.0947476\d7=1.35789428\a6=178.460743
 9\t5=-119.99999826\\Version=EM64L-G09RevA.02\HF=-79.5395728\RMSD=1.978
 e-09\RMSF=5.657e-02\Dipole=-0.4498412,-0.3525593,0.0945714\Quadrupole=
 -0.4083948,-1.9647674,2.3731623,-0.0914463,-0.2844855,-1.083944\PG=C01
  [X(C2H6)]\\@


 Age does not diminish the extreme disappointment of
 having a scoop of ice cream fall from the cone.
 -- Jim Fiebig
 Job cpu time:  0 days  0 hours  0 minutes 10.5 seconds.
 File lengths (MBytes):  RWF=      5 Int=      0 D2E=      0 Chk=      1 Scr=      1
 Normal termination of Gaussian 09 at Wed May 26 19:10:17 2021.
