 Entering Gaussian System, Link 0=g09
 Input=c2h6_015.com
 Output=c2h6_015.log
 Initial command:
 /programs/64bit/g09/g09-gfortran/bin/l1.exe /data/scratch/Gau-6223.inp -scrdir=/data/scratch/
 Entering Link 1 = /programs/64bit/g09/g09-gfortran/bin/l1.exe PID=      6224.
  
 Copyright (c) 1988,1990,1992,1993,1995,1998,2003,2009, Gaussian, Inc.
                  All Rights Reserved.
  
 This is part of the Gaussian(R) 09 program.  It is based on
 the Gaussian(R) 03 system (copyright 2003, Gaussian, Inc.),
 the Gaussian(R) 98 system (copyright 1998, Gaussian, Inc.),
 the Gaussian(R) 94 system (copyright 1995, Gaussian, Inc.),
 the Gaussian 92(TM) system (copyright 1992, Gaussian, Inc.),
 the Gaussian 90(TM) system (copyright 1990, Gaussian, Inc.),
 the Gaussian 88(TM) system (copyright 1988, Gaussian, Inc.),
 the Gaussian 86(TM) system (copyright 1986, Carnegie Mellon
 University), and the Gaussian 82(TM) system (copyright 1983,
 Carnegie Mellon University). Gaussian is a federally registered
 trademark of Gaussian, Inc.
  
 This software contains proprietary and confidential information,
 including trade secrets, belonging to Gaussian, Inc.
  
 This software is provided under written license and may be
 used, copied, transmitted, or stored only in accord with that
 written license.
  
 The following legend is applicable only to US Government
 contracts under FAR:
  
                    RESTRICTED RIGHTS LEGEND
  
 Use, reproduction and disclosure by the US Government is
 subject to restrictions as set forth in subparagraphs (a)
 and (c) of the Commercial Computer Software - Restricted
 Rights clause in FAR 52.227-19.
  
 Gaussian, Inc.
 340 Quinnipiac St., Bldg. 40, Wallingford CT 06492
  
  
 ---------------------------------------------------------------
 Warning -- This program may not be used in any manner that
 competes with the business of Gaussian, Inc. or will provide
 assistance to any competitor of Gaussian, Inc.  The licensee
 of this program is prohibited from giving any competitor of
 Gaussian, Inc. access to this program.  By using this program,
 the user acknowledges that Gaussian, Inc. is engaged in the
 business of creating and licensing software in the field of
 computational chemistry and represents and warrants to the
 licensee that it is not a competitor of Gaussian, Inc. and that
 it will not use this program in any manner prohibited above.
 ---------------------------------------------------------------
  

 Cite this work as:
 Gaussian 09, Revision A.02,
 M. J. Frisch, G. W. Trucks, H. B. Schlegel, G. E. Scuseria, 
 M. A. Robb, J. R. Cheeseman, G. Scalmani, V. Barone, B. Mennucci, 
 G. A. Petersson, H. Nakatsuji, M. Caricato, X. Li, H. P. Hratchian, 
 A. F. Izmaylov, J. Bloino, G. Zheng, J. L. Sonnenberg, M. Hada, 
 M. Ehara, K. Toyota, R. Fukuda, J. Hasegawa, M. Ishida, T. Nakajima, 
 Y. Honda, O. Kitao, H. Nakai, T. Vreven, J. A. Montgomery, Jr., 
 J. E. Peralta, F. Ogliaro, M. Bearpark, J. J. Heyd, E. Brothers, 
 K. N. Kudin, V. N. Staroverov, R. Kobayashi, J. Normand, 
 K. Raghavachari, A. Rendell, J. C. Burant, S. S. Iyengar, J. Tomasi, 
 M. Cossi, N. Rega, J. M. Millam, M. Klene, J. E. Knox, J. B. Cross, 
 V. Bakken, C. Adamo, J. Jaramillo, R. Gomperts, R. E. Stratmann, 
 O. Yazyev, A. J. Austin, R. Cammi, C. Pomelli, J. W. Ochterski, 
 R. L. Martin, K. Morokuma, V. G. Zakrzewski, G. A. Voth, 
 P. Salvador, J. J. Dannenberg, S. Dapprich, A. D. Daniels, 
 O. Farkas, J. B. Foresman, J. V. Ortiz, J. Cioslowski, 
 and D. J. Fox, Gaussian, Inc., Wallingford CT, 2009.
 
 ******************************************
 Gaussian 09:  EM64L-G09RevA.02 11-Jun-2009
                26-May-2021 
 ******************************************
 %chk=c2h6_015.chk
 %mem=100MB
 --------------------------------
 #p b3lyp/6-31+g(d,p) force nosym
 --------------------------------
 1/10=7,30=1,38=1/1,3;
 2/12=2,15=1,17=6,18=5,40=1/2;
 3/5=1,6=6,7=111,11=2,16=1,25=1,30=1,71=1,74=-5/1,2,3;
 4//1;
 5/5=2,38=5/2;
 6/7=2,8=2,9=2,10=2,28=1/1;
 7/29=1,30=1/1,2,3,16;
 1/10=7,30=1/3;
 99//99;
 Leave Link    1 at Wed May 26 19:10:17 2021, MaxMem=   13107200 cpu:       0.0
 (Enter /programs/64bit/g09/g09-gfortran/bin/l101.exe)
 -------------
 c2h6 molecule
 -------------
 Symbolic Z-matrix:
 Charge =  0 Multiplicity = 1
 C1
 C2                   1    d1
 H3                   1    d2       2    a1
 H4                   1    d3       2    a2       3    t1       0
 H5                   1    d4       2    a3       3    t2       0
 H6                   2    d5       1    a4       3    t3       0
 H7                   2    d6       1    a5       6    t4       0
 H8                   2    d7       1    a6       6    t5       0
       Variables:
       Constants:
  d1                    1.50382                  
  a1                  178.91125                  
  t1                  119.93685                  
  d2                    1.                       
  a2                  109.93862                  
  t2                 -178.93628                  
  d3                    1.                       
  d4                    1.1879                   
  a3                  108.93132                  
  d5                    1.13002                  
  a4                  108.94699                  
  t3                  179.99955                  
  d6                    1.11163                  
  a5                  108.94747                  
  t4                  120.00666                  
  d7                    1.                       
  a6                  178.92951                  
  t5                 -120.                       
 
 NAtoms=      8 NQM=      8 NQMF=      0 NMic=      0 NMicF=      0 NTot=      8.
                    Isotopes and Nuclear Properties:
 (Nuclear quadrupole moments (NQMom) in fm**2, nuclear magnetic moments (NMagM)
  in nuclear magnetons)

  Atom         1           2           3           4           5           6           7           8
 IAtWgt=          12          12           1           1           1           1           1           1
 AtmWgt=  12.0000000  12.0000000   1.0078250   1.0078250   1.0078250   1.0078250   1.0078250   1.0078250
 NucSpn=           0           0           1           1           1           1           1           1
 AtZEff=   0.0000000   0.0000000   0.0000000   0.0000000   0.0000000   0.0000000   0.0000000   0.0000000
 NQMom=    0.0000000   0.0000000   0.0000000   0.0000000   0.0000000   0.0000000   0.0000000   0.0000000
 NMagM=    0.0000000   0.0000000   2.7928460   2.7928460   2.7928460   2.7928460   2.7928460   2.7928460
 Leave Link  101 at Wed May 26 19:10:17 2021, MaxMem=   13107200 cpu:       0.0
 (Enter /programs/64bit/g09/g09-gfortran/bin/l103.exe)

 GradGradGradGradGradGradGradGradGradGradGradGradGradGradGradGradGradGrad
 Berny optimization.
 Initialization pass.
                       ----------------------------
                       !    Initial Parameters    !
                       ! (Angstroms and Degrees)  !
 ----------------------                            ----------------------
 !      Name          Value   Derivative information (Atomic Units)     !
 ------------------------------------------------------------------------
 !       d1          1.5038   Frozen                                    !
 !       a1        178.9113   Frozen                                    !
 !       t1        119.9369   Frozen                                    !
 !       d2          1.0      Frozen                                    !
 !       a2        109.9386   Frozen                                    !
 !       t2       -178.9363   Frozen                                    !
 !       d3          1.0      Frozen                                    !
 !       d4          1.1879   Frozen                                    !
 !       a3        108.9313   Frozen                                    !
 !       d5          1.13     Frozen                                    !
 !       a4        108.947    Frozen                                    !
 !       t3        179.9996   Frozen                                    !
 !       d6          1.1116   Frozen                                    !
 !       a5        108.9475   Frozen                                    !
 !       t4        120.0067   Frozen                                    !
 !       d7          1.0      Frozen                                    !
 !       a6        178.9295   Frozen                                    !
 !       t5       -120.0      Frozen                                    !
 ------------------------------------------------------------------------
 Trust Radius=3.00D-01 FncErr=1.00D-07 GrdErr=1.00D-07
 Number of steps in this run=   2 maximum allowed number of steps=   2.
 GradGradGradGradGradGradGradGradGradGradGradGradGradGradGradGradGradGrad

 Leave Link  103 at Wed May 26 19:10:17 2021, MaxMem=   13107200 cpu:       0.0
 (Enter /programs/64bit/g09/g09-gfortran/bin/l202.exe)
                          Input orientation:                          
 ---------------------------------------------------------------------
 Center     Atomic      Atomic             Coordinates (Angstroms)
 Number     Number       Type             X           Y           Z
 ---------------------------------------------------------------------
      1          6           0        0.000000    0.000000    0.000000
      2          6           0        0.000000    0.000000    1.503823
      3          1           0        0.019001    0.000000   -0.999819
      4          1           0       -0.469132   -0.814632   -0.341013
      5          1           0       -1.123451    0.020860   -0.385396
      6          1           0       -1.068790    0.000008    1.870732
      7          1           0        0.525796   -0.910477    1.864770
      8          1           0        0.009341    0.016179    2.503649
 ---------------------------------------------------------------------
                    Distance matrix (angstroms):
                    1          2          3          4          5
     1  C    0.000000
     2  C    1.503823   0.000000
     3  H    1.000000   2.503715   0.000000
     4  H    1.000000   2.070539   1.155822   0.000000
     5  H    1.187900   2.198119   1.297362   1.062144   0.000000
     6  H    2.154518   1.130015   3.069748   2.432087   2.256886
     7  H    2.140746   1.111626   3.048226   2.421682   2.941198
     8  H    2.503718   1.000000   3.503519   3.001881   3.103195
                    6          7          8
     6  H    0.000000
     7  H    1.836225   0.000000
     8  H    1.250285   1.238380   0.000000
 Symmetry turned off by external request.
 Stoichiometry    C2H6
 Framework group  C1[X(C2H6)]
 Deg. of freedom    18
 Full point group                 C1      NOp   1
 Rotational constants (GHZ):    122.6743031     19.2883402     18.3195750
 Leave Link  202 at Wed May 26 19:10:17 2021, MaxMem=   13107200 cpu:       0.0
 (Enter /programs/64bit/g09/g09-gfortran/bin/l301.exe)
 Standard basis: 6-31+G(d,p) (6D, 7F)
 Ernie: Thresh=  0.10000D-02 Tol=  0.10000D-05 Strict=F.
 Integral buffers will be    131072 words long.
 Raffenetti 2 integral format.
 Two-electron integral symmetry is turned off.
    68 basis functions,   106 primitive gaussians,    68 cartesian basis functions
     9 alpha electrons        9 beta electrons
       nuclear repulsion energy        43.1999955271 Hartrees.
 IExCor=  402 DFT=T Ex+Corr=B3LYP ExCW=0 ScaHFX=  0.200000
 ScaDFX=  0.800000  0.720000  1.000000  0.810000 ScalE2=  1.000000  1.000000
 IRadAn=      0 IRanWt=     -1 IRanGd=            0 ICorTp=0
 NAtoms=    8 NActive=    8 NUniq=    8 SFac= 7.50D-01 NAtFMM=   80 NAOKFM=F Big=F
 Leave Link  301 at Wed May 26 19:10:17 2021, MaxMem=   13107200 cpu:       0.0
 (Enter /programs/64bit/g09/g09-gfortran/bin/l302.exe)
 NPDir=0 NMtPBC=     1 NCelOv=     1 NCel=       1 NClECP=     1 NCelD=      1
         NCelK=      1 NCelE2=     1 NClLst=     1 CellRange=     0.0.
 One-electron integrals computed using PRISM.
 NBasis=    68 RedAO= T  NBF=    68
 NBsUse=    68 1.00D-06 NBFU=    68
 Precomputing XC quadrature grid using
 IXCGrd= 2 IRadAn=           0 IRanWt=          -1 IRanGd=           0 AccXCQ= 1.00D-10.
 NRdTot=     510 NPtTot=       65100 NUsed=       68787 NTot=       68819
 NSgBfM=    68    68    68    68    68 NAtAll=     8     8.
 Leave Link  302 at Wed May 26 19:10:17 2021, MaxMem=   13107200 cpu:       0.1
 (Enter /programs/64bit/g09/g09-gfortran/bin/l303.exe)
 DipDrv:  MaxL=1.
 Leave Link  303 at Wed May 26 19:10:17 2021, MaxMem=   13107200 cpu:       0.0
 (Enter /programs/64bit/g09/g09-gfortran/bin/l401.exe)
 Harris functional with IExCor=  402 diagonalized for initial guess.
 ExpMin= 4.38D-02 ExpMax= 3.05D+03 ExpMxC= 4.57D+02 IAcc=2 IRadAn=         0 AccDes= 0.00D+00
 HarFok:  IExCor=  402 AccDes= 0.00D+00 IRadAn=         0 IDoV= 1
 ScaDFX=  1.000000  1.000000  1.000000  1.000000
 FoFCou: FMM=F IPFlag=           0 FMFlag=      100000 FMFlg1=           0
         NFxFlg=           0 DoJE=T BraDBF=F KetDBF=T FulRan=T
         Omega=  0.000000  0.000000  1.000000  0.000000  0.000000 ICntrl=     500 IOpCl=  0
         NMat0=    1 NMatS0=    1 NMatT0=    0 NMatD0=    1 NMtDS0=    0 NMtDT0=    0
         I1Cent=           4 NGrid=           0.
 Symmetry not used in FoFCou.
 Harris En= -79.5947162358833    
 Leave Link  401 at Wed May 26 19:10:18 2021, MaxMem=   13107200 cpu:       0.7
 (Enter /programs/64bit/g09/g09-gfortran/bin/l502.exe)
 Closed shell SCF:
 Requested convergence on RMS density matrix=1.00D-08 within 128 cycles.
 Requested convergence on MAX density matrix=1.00D-06.
 Requested convergence on             energy=1.00D-06.
 No special actions if energy rises.
 Using DIIS extrapolation, IDIIS=  1040.
 Two-electron integral symmetry not used.
        68702 words used for storage of precomputed grid.
 Keep R1 ints in memory in canonical form, NReq=3743087.
 IEnd=      101552 IEndB=      101552 NGot=    13107200 MDV=    10273922
 LenX=    10273922 LenY=    10268857
 Symmetry not used in FoFDir.
 MinBra= 0 MaxBra= 2 Meth= 1.
 IRaf=       0 NMat=   1 IRICut=       1 DoRegI=T DoRafI=F ISym2E= 0 JSym2E=0.

 Cycle   1  Pass 1  IDiag  1:
 E= -79.3620038552534    
 DIIS: error= 3.52D-02 at cycle   1 NSaved=   1.
 NSaved= 1 IEnMin= 1 EnMin= -79.3620038552534     IErMin= 1 ErrMin= 3.52D-02
 ErrMax= 3.52D-02 EMaxC= 1.00D-01 BMatC= 1.41D-01 BMatP= 1.41D-01
 IDIUse=3 WtCom= 6.48D-01 WtEn= 3.52D-01
 Coeff-Com:  0.100D+01
 Coeff-En:   0.100D+01
 Coeff:      0.100D+01
 Gap=     0.248 Goal=   None    Shift=    0.000
 GapD=    0.248 DampG=1.000 DampE=0.500 DampFc=0.5000 IDamp=-1.
 Damping current iteration by 5.00D-01
 RMSDP=3.02D-02 MaxDP=5.85D-01              OVMax= 2.97D-01

 Cycle   2  Pass 1  IDiag  1:
 E= -79.4145441527319     Delta-E=       -0.052540297478 Rises=F Damp=T
 DIIS: error= 1.14D-02 at cycle   2 NSaved=   2.
 NSaved= 2 IEnMin= 2 EnMin= -79.4145441527319     IErMin= 2 ErrMin= 1.14D-02
 ErrMax= 1.14D-02 EMaxC= 1.00D-01 BMatC= 1.07D-02 BMatP= 1.41D-01
 IDIUse=3 WtCom= 8.86D-01 WtEn= 1.14D-01
 Coeff-Com:  0.165D+00 0.835D+00
 Coeff-En:   0.291D+00 0.709D+00
 Coeff:      0.180D+00 0.820D+00
 Gap=     0.220 Goal=   None    Shift=    0.000
 RMSDP=1.11D-02 MaxDP=2.73D-01 DE=-5.25D-02 OVMax= 1.84D-01

 Cycle   3  Pass 1  IDiag  1:
 E= -79.5162097550504     Delta-E=       -0.101665602319 Rises=F Damp=F
 DIIS: error= 4.30D-03 at cycle   3 NSaved=   3.
 NSaved= 3 IEnMin= 3 EnMin= -79.5162097550504     IErMin= 3 ErrMin= 4.30D-03
 ErrMax= 4.30D-03 EMaxC= 1.00D-01 BMatC= 1.47D-03 BMatP= 1.07D-02
 IDIUse=3 WtCom= 9.57D-01 WtEn= 4.30D-02
 Coeff-Com:  0.266D-01 0.276D+00 0.697D+00
 Coeff-En:   0.000D+00 0.000D+00 0.100D+01
 Coeff:      0.255D-01 0.265D+00 0.710D+00
 Gap=     0.229 Goal=   None    Shift=    0.000
 RMSDP=1.60D-03 MaxDP=2.41D-02 DE=-1.02D-01 OVMax= 1.56D-02

 Cycle   4  Pass 1  IDiag  1:
 E= -79.5177303322452     Delta-E=       -0.001520577195 Rises=F Damp=F
 DIIS: error= 7.60D-04 at cycle   4 NSaved=   4.
 NSaved= 4 IEnMin= 4 EnMin= -79.5177303322452     IErMin= 4 ErrMin= 7.60D-04
 ErrMax= 7.60D-04 EMaxC= 1.00D-01 BMatC= 5.63D-05 BMatP= 1.47D-03
 IDIUse=3 WtCom= 9.92D-01 WtEn= 7.60D-03
 Coeff-Com: -0.520D-03 0.165D-01 0.174D+00 0.810D+00
 Coeff-En:   0.000D+00 0.000D+00 0.000D+00 0.100D+01
 Coeff:     -0.516D-03 0.164D-01 0.172D+00 0.812D+00
 Gap=     0.228 Goal=   None    Shift=    0.000
 RMSDP=3.27D-04 MaxDP=4.99D-03 DE=-1.52D-03 OVMax= 3.46D-03

 Cycle   5  Pass 1  IDiag  1:
 E= -79.5177862907522     Delta-E=       -0.000055958507 Rises=F Damp=F
 DIIS: error= 2.33D-04 at cycle   5 NSaved=   5.
 NSaved= 5 IEnMin= 5 EnMin= -79.5177862907522     IErMin= 5 ErrMin= 2.33D-04
 ErrMax= 2.33D-04 EMaxC= 1.00D-01 BMatC= 7.43D-06 BMatP= 5.63D-05
 IDIUse=3 WtCom= 9.98D-01 WtEn= 2.33D-03
 Coeff-Com: -0.639D-03-0.296D-02 0.514D-01 0.363D+00 0.590D+00
 Coeff-En:   0.000D+00 0.000D+00 0.000D+00 0.000D+00 0.100D+01
 Coeff:     -0.638D-03-0.295D-02 0.513D-01 0.362D+00 0.591D+00
 Gap=     0.228 Goal=   None    Shift=    0.000
 RMSDP=6.92D-05 MaxDP=7.55D-04 DE=-5.60D-05 OVMax= 9.07D-04

 Cycle   6  Pass 1  IDiag  1:
 E= -79.5177931893775     Delta-E=       -0.000006898625 Rises=F Damp=F
 DIIS: error= 6.96D-05 at cycle   6 NSaved=   6.
 NSaved= 6 IEnMin= 6 EnMin= -79.5177931893775     IErMin= 6 ErrMin= 6.96D-05
 ErrMax= 6.96D-05 EMaxC= 1.00D-01 BMatC= 5.56D-07 BMatP= 7.43D-06
 IDIUse=1 WtCom= 1.00D+00 WtEn= 0.00D+00
 Coeff-Com:  0.130D-03-0.208D-02 0.132D-01 0.111D+00 0.271D+00 0.606D+00
 Coeff:      0.130D-03-0.208D-02 0.132D-01 0.111D+00 0.271D+00 0.606D+00
 Gap=     0.228 Goal=   None    Shift=    0.000
 RMSDP=1.70D-05 MaxDP=2.32D-04 DE=-6.90D-06 OVMax= 2.45D-04

 Cycle   7  Pass 1  IDiag  1:
 E= -79.5177937414956     Delta-E=       -0.000000552118 Rises=F Damp=F
 DIIS: error= 1.20D-05 at cycle   7 NSaved=   7.
 NSaved= 7 IEnMin= 7 EnMin= -79.5177937414956     IErMin= 7 ErrMin= 1.20D-05
 ErrMax= 1.20D-05 EMaxC= 1.00D-01 BMatC= 1.29D-08 BMatP= 5.56D-07
 IDIUse=1 WtCom= 1.00D+00 WtEn= 0.00D+00
 Coeff-Com:  0.215D-03-0.402D-03 0.805D-03 0.831D-02 0.348D-01 0.151D+00
 Coeff-Com:  0.805D+00
 Coeff:      0.215D-03-0.402D-03 0.805D-03 0.831D-02 0.348D-01 0.151D+00
 Coeff:      0.805D+00
 Gap=     0.228 Goal=   None    Shift=    0.000
 RMSDP=5.36D-06 MaxDP=8.37D-05 DE=-5.52D-07 OVMax= 4.61D-05

 Cycle   8  Pass 1  IDiag  1:
 E= -79.5177937564617     Delta-E=       -0.000000014966 Rises=F Damp=F
 DIIS: error= 1.66D-06 at cycle   8 NSaved=   8.
 NSaved= 8 IEnMin= 8 EnMin= -79.5177937564617     IErMin= 8 ErrMin= 1.66D-06
 ErrMax= 1.66D-06 EMaxC= 1.00D-01 BMatC= 1.90D-10 BMatP= 1.29D-08
 IDIUse=1 WtCom= 1.00D+00 WtEn= 0.00D+00
 Coeff-Com:  0.561D-04-0.859D-04-0.445D-04 0.376D-03 0.384D-02 0.279D-01
 Coeff-Com:  0.205D+00 0.763D+00
 Coeff:      0.561D-04-0.859D-04-0.445D-04 0.376D-03 0.384D-02 0.279D-01
 Coeff:      0.205D+00 0.763D+00
 Gap=     0.228 Goal=   None    Shift=    0.000
 RMSDP=1.18D-06 MaxDP=1.41D-05 DE=-1.50D-08 OVMax= 7.27D-06

 Cycle   9  Pass 1  IDiag  1:
 E= -79.5177937566842     Delta-E=       -0.000000000222 Rises=F Damp=F
 DIIS: error= 4.29D-07 at cycle   9 NSaved=   9.
 NSaved= 9 IEnMin= 9 EnMin= -79.5177937566842     IErMin= 9 ErrMin= 4.29D-07
 ErrMax= 4.29D-07 EMaxC= 1.00D-01 BMatC= 1.03D-11 BMatP= 1.90D-10
 IDIUse=1 WtCom= 1.00D+00 WtEn= 0.00D+00
 Coeff-Com: -0.208D-05 0.144D-05-0.524D-04-0.273D-03-0.117D-02-0.314D-02
 Coeff-Com: -0.624D-02 0.186D+00 0.825D+00
 Coeff:     -0.208D-05 0.144D-05-0.524D-04-0.273D-03-0.117D-02-0.314D-02
 Coeff:     -0.624D-02 0.186D+00 0.825D+00
 Gap=     0.228 Goal=   None    Shift=    0.000
 RMSDP=1.38D-07 MaxDP=1.62D-06 DE=-2.22D-10 OVMax= 1.23D-06

 Cycle  10  Pass 1  IDiag  1:
 E= -79.5177937566961     Delta-E=       -0.000000000012 Rises=F Damp=F
 DIIS: error= 1.97D-08 at cycle  10 NSaved=  10.
 NSaved=10 IEnMin=10 EnMin= -79.5177937566961     IErMin=10 ErrMin= 1.97D-08
 ErrMax= 1.97D-08 EMaxC= 1.00D-01 BMatC= 5.37D-14 BMatP= 1.03D-11
 IDIUse=1 WtCom= 1.00D+00 WtEn= 0.00D+00
 Coeff-Com: -0.981D-06 0.847D-06-0.822D-05-0.468D-04-0.223D-03-0.804D-03
 Coeff-Com: -0.291D-02 0.252D-01 0.128D+00 0.850D+00
 Coeff:     -0.981D-06 0.847D-06-0.822D-05-0.468D-04-0.223D-03-0.804D-03
 Coeff:     -0.291D-02 0.252D-01 0.128D+00 0.850D+00
 Gap=     0.228 Goal=   None    Shift=    0.000
 RMSDP=1.06D-08 MaxDP=1.55D-07 DE=-1.19D-11 OVMax= 1.44D-07

 Cycle  11  Pass 1  IDiag  1:
 E= -79.5177937566961     Delta-E=        0.000000000000 Rises=F Damp=F
 DIIS: error= 7.16D-09 at cycle  11 NSaved=  11.
 NSaved=11 IEnMin=10 EnMin= -79.5177937566961     IErMin=11 ErrMin= 7.16D-09
 ErrMax= 7.16D-09 EMaxC= 1.00D-01 BMatC= 3.82D-15 BMatP= 5.37D-14
 IDIUse=1 WtCom= 1.00D+00 WtEn= 0.00D+00
 Coeff-Com: -0.126D-06 0.186D-06 0.476D-06-0.201D-06-0.250D-05-0.572D-04
 Coeff-Com: -0.358D-03-0.235D-02-0.104D-01 0.177D+00 0.836D+00
 Coeff:     -0.126D-06 0.186D-06 0.476D-06-0.201D-06-0.250D-05-0.572D-04
 Coeff:     -0.358D-03-0.235D-02-0.104D-01 0.177D+00 0.836D+00
 Gap=     0.228 Goal=   None    Shift=    0.000
 RMSDP=3.15D-09 MaxDP=4.29D-08 DE= 8.53D-14 OVMax= 3.28D-08

 SCF Done:  E(RB3LYP) =  -79.5177937567     A.U. after   11 cycles
             Convg  =    0.3150D-08             -V/T =  2.0037
 KE= 7.922219434166D+01 PE=-2.694276829803D+02 EE= 6.748769935483D+01
 Leave Link  502 at Wed May 26 19:10:26 2021, MaxMem=   13107200 cpu:       7.2
 (Enter /programs/64bit/g09/g09-gfortran/bin/l601.exe)
 Copying SCF densities to generalized density rwf, IOpCl= 0 IROHF=0.

 **********************************************************************

            Population analysis using the SCF density.

 **********************************************************************

 Alpha  occ. eigenvalues --  -10.20066 -10.19683  -0.81814  -0.73470  -0.51401
 Alpha  occ. eigenvalues --   -0.43761  -0.37489  -0.29142  -0.23753
 Alpha virt. eigenvalues --   -0.00910   0.00132   0.05236   0.05296   0.06288
 Alpha virt. eigenvalues --    0.07373   0.08974   0.09533   0.13174   0.16547
 Alpha virt. eigenvalues --    0.21411   0.21865   0.25178   0.26656   0.39832
 Alpha virt. eigenvalues --    0.65028   0.65913   0.69148   0.72080   0.76039
 Alpha virt. eigenvalues --    0.80013   0.87770   0.89888   0.91871   0.93640
 Alpha virt. eigenvalues --    0.98107   1.11889   1.16523   1.24401   1.30949
 Alpha virt. eigenvalues --    1.33301   1.54240   1.62737   1.76071   1.85192
 Alpha virt. eigenvalues --    1.96833   1.98960   2.11571   2.16405   2.20825
 Alpha virt. eigenvalues --    2.27799   2.35231   2.52673   2.56388   2.64873
 Alpha virt. eigenvalues --    2.75110   2.81190   2.83641   2.93354   3.01308
 Alpha virt. eigenvalues --    3.07282   3.15529   3.20790   3.36736   3.51813
 Alpha virt. eigenvalues --    3.59744   3.97282   4.25114   5.40528
          Condensed to atoms (all electrons):
              1          2          3          4          5          6
     1  C    5.353104   0.117368   0.442830   0.301127   0.211198  -0.085093
     2  C    0.117368   5.254161  -0.012145  -0.089931   0.022393   0.424260
     3  H    0.442830  -0.012145   0.617683  -0.113079  -0.066528   0.004952
     4  H    0.301127  -0.089931  -0.113079   0.899902  -0.071298  -0.009920
     5  H    0.211198   0.022393  -0.066528  -0.071298   0.869401  -0.022175
     6  H   -0.085093   0.424260   0.004952  -0.009920  -0.022175   0.648918
     7  H   -0.134557   0.451098   0.002803  -0.025281   0.007547  -0.025650
     8  H    0.047999   0.294592  -0.000908   0.008313   0.000103  -0.069769
              7          8
     1  C   -0.134557   0.047999
     2  C    0.451098   0.294592
     3  H    0.002803  -0.000908
     4  H   -0.025281   0.008313
     5  H    0.007547   0.000103
     6  H   -0.025650  -0.069769
     7  H    0.669159  -0.076428
     8  H   -0.076428   0.620032
 Mulliken atomic charges:
              1
     1  C   -0.253976
     2  C   -0.461794
     3  H    0.124392
     4  H    0.100165
     5  H    0.049359
     6  H    0.134478
     7  H    0.131310
     8  H    0.176066
 Sum of Mulliken atomic charges =  -0.00000
 Mulliken charges with hydrogens summed into heavy atoms:
              1
     1  C    0.019940
     2  C   -0.019940
 Sum of Mulliken charges with hydrogens summed into heavy atoms =  -0.00000
 Electronic spatial extent (au):  <R**2>=            149.8636
 Charge=             -0.0000 electrons
 Dipole moment (field-independent basis, Debye):
    X=             -0.9546    Y=             -1.1280    Z=              0.3331  Tot=              1.5148
 Quadrupole moment (field-independent basis, Debye-Ang):
   XX=            -16.0747   YY=            -17.9188   ZZ=            -11.6019
   XY=             -0.1494   XZ=             -0.1245   YZ=             -0.5946
 Traceless Quadrupole moment (field-independent basis, Debye-Ang):
   XX=             -0.8762   YY=             -2.7203   ZZ=              3.5966
   XY=             -0.1494   XZ=             -0.1245   YZ=             -0.5946
 Octapole moment (field-independent basis, Debye-Ang**2):
  XXX=              4.9144  YYY=              3.4962  ZZZ=            -25.4669  XYY=              1.8513
  XXY=              0.5797  XXZ=            -11.6651  XZZ=             -1.0644  YZZ=             -2.7814
  YYZ=            -13.6682  XYZ=             -2.0061
 Hexadecapole moment (field-independent basis, Debye-Ang**3):
 XXXX=            -35.2004 YYYY=            -31.9780 ZZZZ=           -126.5589 XXXY=              0.2072
 XXXZ=              0.6110 YYYX=             -0.0844 YYYZ=              3.6615 ZZZX=             -4.2356
 ZZZY=             -4.9467 XXYY=            -11.1688 XXZZ=            -32.1941 YYZZ=            -35.7577
 XXYZ=              1.4238 YYXZ=              0.6669 ZZXY=             -2.9511
 N-N= 4.319999552714D+01 E-N=-2.694276829743D+02  KE= 7.922219434166D+01
 No NMR shielding tensors so no spin-rotation constants.
 Leave Link  601 at Wed May 26 19:10:26 2021, MaxMem=   13107200 cpu:       0.1
 (Enter /programs/64bit/g09/g09-gfortran/bin/l701.exe)
 Compute integral first derivatives.
 ... and contract with generalized density number  0.
 Leave Link  701 at Wed May 26 19:10:26 2021, MaxMem=   13107200 cpu:       0.1
 (Enter /programs/64bit/g09/g09-gfortran/bin/l702.exe)
 L702 exits ... SP integral derivatives will be done elsewhere.
 Leave Link  702 at Wed May 26 19:10:26 2021, MaxMem=   13107200 cpu:       0.0
 (Enter /programs/64bit/g09/g09-gfortran/bin/l703.exe)
 Compute integral first derivatives, UseDBF=F ICtDFT=           0.
 Integral derivatives from FoFDir, PRISM(SPDF).
 Calling FoFJK, ICntrl=      2127 FMM=F ISym2X=0 I1Cent= 0 IOpClX= 0 NMat=1 NMatS=1 NMatT=0.
 FoFCou: FMM=F IPFlag=           0 FMFlag=      100000 FMFlg1=         800
         NFxFlg=           0 DoJE=F BraDBF=F KetDBF=F FulRan=T
         Omega=  0.000000  0.000000  1.000000  0.000000  0.000000 ICntrl=    2127 IOpCl=  0
         NMat0=    1 NMatS0=    1 NMatT0=    0 NMatD0=    1 NMtDS0=    0 NMtDT0=    0
         I1Cent=           0 NGrid=           0.
 Symmetry not used in FoFCou.
 Leave Link  703 at Wed May 26 19:10:27 2021, MaxMem=   13107200 cpu:       1.4
 (Enter /programs/64bit/g09/g09-gfortran/bin/l716.exe)
 Dipole        =-3.75569204D-01-4.43794154D-01 1.31054324D-01
 -------------------------------------------------------------------
 Center     Atomic                   Forces (Hartrees/Bohr)
 Number     Number              X              Y              Z
 -------------------------------------------------------------------
      1        6          -0.082920048    0.038186833    0.037184502
      2        6          -0.025400051   -0.052263745   -0.041381160
      3        1           0.098889505    0.068779719   -0.089692255
      4        1          -0.006706285   -0.147187822    0.022609326
      5        1          -0.015976577    0.057312406    0.037762861
      6        1          -0.008683932   -0.027372555   -0.031457122
      7        1          -0.013714089   -0.033590058   -0.026066682
      8        1           0.054511476    0.096135222    0.091040531
 -------------------------------------------------------------------
 Cartesian Forces:  Max     0.147187822 RMS     0.060847668
 -----------------------------------------------------------------------------------------------
                       Internal Coordinate Forces (Hartree/Bohr or radian)
  Cent   Atom   N1       Length/X         N2         Alpha/Y        N3         Beta/Z          J
 -----------------------------------------------------------------------------------------------
      1  C 
      2  C        1  -0.007864(     1)
      3  H        1   0.091555(     2)      2  -0.183620(     8)
      4  H        1   0.115340(     3)      2  -0.124517(     9)      3  -0.120163(    14)     0
      5  H        1   0.003865(     4)      2  -0.092593(    10)      3   0.121045(    15)     0
      6  H        2  -0.002001(     5)      1  -0.069556(    11)      3  -0.001656(    16)     0
      7  H        2   0.012561(     6)      1  -0.066953(    12)      6  -0.056971(    17)     0
      8  H        2   0.093089(     7)      1  -0.205585(    13)      6   0.000030(    18)     0
 -----------------------------------------------------------------------------------------------
 Internal  Forces:  Max     0.205585424 RMS     0.097840447
 Force constants in Cartesian coordinates: 
                1             2             3             4             5 
      1  0.624520D+01
      2 -0.834696D+01  0.546398D+02
      3  0.144720D+00  0.122587D+00  0.102335D+01
      4 -0.142805D+02  0.213205D+02  0.371727D-01  0.363222D+02
      5  0.102584D+02 -0.321193D+02  0.241113D-01 -0.259580D+02  0.259368D+02
      6 -0.118860D-01 -0.213070D-01 -0.319795D+00 -0.592115D-01 -0.110956D+00
      7 -0.139502D+00  0.149573D-02 -0.503694D-01  0.359832D-01 -0.351872D-02
      8  0.323068D+01 -0.296391D+02 -0.361902D-01 -0.803213D+01  0.157145D+02
      9  0.641175D-02  0.284255D-04 -0.477841D+00  0.683842D-03 -0.668716D-04
     10 -0.109883D+00 -0.208969D+00 -0.735941D-01 -0.130624D+00  0.813223D-01
     11 -0.180152D+00 -0.305513D+00 -0.993623D-01  0.811013D-01 -0.366121D-01
     12 -0.745235D-01 -0.121901D+00 -0.138278D+00 -0.140402D-01 -0.244140D-01
     13 -0.230906D+00  0.477485D-02 -0.579291D-01  0.106922D-01 -0.142760D-02
     14 -0.800244D-01 -0.117443D-01 -0.111457D-01  0.135832D+00 -0.700591D-01
     15 -0.766081D-01 -0.714713D-03 -0.874366D-01 -0.238163D-01  0.369542D-03
     16  0.857461D-02  0.000000D+00  0.000000D+00 -0.272702D+00  0.653446D-02
     17 -0.207955D-02 -0.152071D+00  0.000000D+00 -0.204421D-01 -0.677495D-02
     18  0.249776D-01  0.000000D+00  0.000000D+00  0.961083D-01  0.190279D-01
     19  0.107483D-01  0.141765D+00  0.000000D+00 -0.121773D+00  0.192605D-01
     20  0.117337D-02  0.905855D-01  0.000000D+00  0.103574D+00 -0.274549D+00
     21 -0.126974D-01  0.219888D-01  0.000000D+00 -0.337400D-01  0.974017D-01
     22  0.849630D+01 -0.129126D+02  0.000000D+00 -0.215633D+02  0.155973D+02
     23 -0.488107D+01  0.749739D+01  0.000000D+00  0.123695D+02 -0.914390D+01
     24 -0.394086D-03 -0.682560D-03  0.000000D+00 -0.315679D-02 -0.547404D-02
                6             7             8             9            10 
      6  0.102318D+01
      7  0.000000D+00  0.110593D+00
      8  0.000000D+00  0.135234D-01  0.166950D+02
      9  0.000000D+00 -0.696117D-02  0.257005D-03  0.476751D+00
     10  0.000000D+00  0.520110D-02 -0.127027D-01  0.988442D-04  0.152730D+00
     11  0.000000D+00 -0.120050D-01 -0.795052D-02 -0.228148D-03  0.158434D+00
     12  0.000000D+00  0.215230D-01  0.364677D-01  0.409033D-03  0.674610D-01
     13  0.000000D+00 -0.122743D-01  0.381710D-03 -0.233267D-03 -0.150392D-02
     14  0.000000D+00  0.504569D-03  0.106831D-01  0.958908D-05  0.304887D-01
     15  0.000000D+00  0.358076D-01 -0.534476D-03  0.680506D-03  0.603422D-02
     16  0.669071D-01  0.000000D+00  0.000000D+00  0.000000D+00  0.000000D+00
     17  0.283015D-01  0.000000D+00  0.986425D-01  0.000000D+00  0.172780D-02
     18 -0.110798D+00  0.000000D+00  0.000000D+00  0.000000D+00  0.000000D+00
     19 -0.110031D-01  0.000000D+00 -0.868349D-01  0.000000D+00 -0.152098D-02
     20  0.765683D-01  0.000000D+00 -0.501467D-01  0.000000D+00 -0.878359D-03
     21 -0.115115D+00  0.000000D+00  0.000000D+00  0.000000D+00  0.000000D+00
     22  0.151936D-01  0.000000D+00  0.488708D+01  0.000000D+00  0.856011D-01
     23  0.273927D-01  0.000000D+00 -0.282161D+01  0.000000D+00 -0.494227D-01
     24 -0.477469D+00  0.000000D+00  0.000000D+00  0.000000D+00  0.000000D+00
               11            12            13            14            15 
     11  0.342227D+00
     12  0.103717D+00  0.136312D+00
     13  0.104198D-02 -0.420216D-03  0.235499D+00
     14 -0.201239D-01  0.612984D-02 -0.564150D-02  0.443584D-01
     15 -0.412666D-02  0.155673D-02  0.585825D-01  0.500631D-02  0.851994D-01
     16  0.000000D+00  0.000000D+00  0.000000D+00  0.000000D+00  0.000000D+00
     17 -0.995009D-03  0.000000D+00 -0.309666D-04 -0.166778D-02  0.000000D+00
     18  0.000000D+00  0.000000D+00  0.000000D+00  0.000000D+00  0.000000D+00
     19  0.875906D-03  0.000000D+00  0.272599D-04  0.146814D-02  0.000000D+00
     20  0.505831D-03  0.000000D+00  0.157424D-04  0.847845D-03  0.000000D+00
     21  0.000000D+00  0.000000D+00  0.000000D+00  0.000000D+00  0.000000D+00
     22 -0.492961D-01  0.000000D+00 -0.153419D-02 -0.826273D-01  0.000000D+00
     23  0.284616D-01  0.000000D+00  0.885781D-03  0.477058D-01  0.000000D+00
     24  0.000000D+00  0.000000D+00  0.000000D+00  0.000000D+00  0.000000D+00
               16            17            18            19            20 
     16  0.281767D+00
     17 -0.470783D-02  0.421246D-01
     18 -0.697024D-01 -0.137078D-01  0.102655D+00
     19 -0.474493D-02  0.262386D-01 -0.138224D-01  0.111551D+00
     20 -0.168069D-02  0.943708D-02 -0.489600D-02 -0.112925D+00  0.230651D+00
     21  0.267252D-02 -0.144174D-01  0.778528D-02  0.250432D-01 -0.716907D-01
     22 -0.128944D-01 -0.705946D-03 -0.375610D-01  0.571235D-02  0.107208D-01
     23 -0.145760D-03  0.113041D-01 -0.424851D-03  0.101520D-01 -0.733162D-02
     24  0.122832D-03 -0.176330D-03  0.357808D-03 -0.217653D-03  0.184776D-04
               21            22            23            24 
     21  0.106966D+00
     22  0.187217D-01  0.129901D+02
     23 -0.332823D-01 -0.744993D+01  0.438797D+01
     24  0.363667D-03  0.364570D-02  0.631445D-02  0.476747D+00
 Force constants in internal coordinates: 
                1             2             3             4             5 
      1  0.319795D+00
      2  0.000000D+00  0.476883D+00
      3  0.000000D+00  0.000000D+00  0.476883D+00
      4  0.000000D+00  0.000000D+00  0.000000D+00  0.255700D+00
      5  0.000000D+00  0.000000D+00  0.000000D+00  0.000000D+00  0.305695D+00
      6  0.000000D+00  0.000000D+00  0.000000D+00  0.000000D+00  0.000000D+00
      7  0.000000D+00  0.000000D+00  0.000000D+00  0.000000D+00  0.000000D+00
      8  0.000000D+00  0.000000D+00  0.000000D+00  0.000000D+00  0.000000D+00
      9  0.000000D+00  0.000000D+00  0.000000D+00  0.000000D+00  0.000000D+00
     10  0.000000D+00  0.000000D+00  0.000000D+00  0.000000D+00  0.000000D+00
     11  0.000000D+00  0.000000D+00  0.000000D+00  0.000000D+00  0.000000D+00
     12  0.000000D+00  0.000000D+00  0.000000D+00  0.000000D+00  0.000000D+00
     13  0.000000D+00  0.000000D+00  0.000000D+00  0.000000D+00  0.000000D+00
     14  0.000000D+00  0.000000D+00  0.000000D+00  0.000000D+00  0.000000D+00
     15  0.000000D+00  0.000000D+00  0.000000D+00  0.000000D+00  0.000000D+00
     16  0.000000D+00  0.000000D+00  0.000000D+00  0.000000D+00  0.000000D+00
     17  0.000000D+00  0.000000D+00  0.000000D+00  0.000000D+00  0.000000D+00
     18  0.000000D+00  0.000000D+00  0.000000D+00  0.000000D+00  0.000000D+00
                6             7             8             9            10 
      6  0.324285D+00
      7  0.000000D+00  0.476883D+00
      8  0.000000D+00  0.000000D+00  0.394461D+00
      9  0.000000D+00  0.000000D+00  0.817756D-01  0.326735D+00
     10  0.000000D+00  0.000000D+00  0.160614D+00  0.742657D-02  0.328259D+00
     11  0.000000D+00  0.000000D+00  0.000000D+00  0.000000D+00  0.000000D+00
     12  0.000000D+00  0.000000D+00  0.000000D+00  0.000000D+00  0.000000D+00
     13  0.000000D+00  0.000000D+00  0.000000D+00  0.000000D+00  0.000000D+00
     14  0.000000D+00  0.000000D+00  0.352488D-01  0.239281D-01  0.307271D-01
     15  0.000000D+00  0.000000D+00 -0.111016D-02 -0.261272D-01 -0.307036D-01
     16  0.000000D+00  0.000000D+00  0.000000D+00  0.000000D+00  0.000000D+00
     17  0.000000D+00  0.000000D+00  0.000000D+00  0.000000D+00  0.000000D+00
     18  0.000000D+00  0.000000D+00  0.000000D+00  0.000000D+00  0.000000D+00
               11            12            13            14            15 
     11  0.358995D+00
     12  0.390391D-01  0.358999D+00
     13  0.817125D-01  0.816993D-01  0.309040D+00
     14  0.000000D+00  0.000000D+00  0.000000D+00  0.198468D+00
     15  0.000000D+00  0.000000D+00  0.000000D+00 -0.137392D+00  0.199353D+00
     16  0.408646D-03 -0.411748D-03  0.132044D-05  0.214612D-01  0.214612D-01
     17 -0.646774D-01 -0.625092D-01 -0.360217D-01  0.715372D-02  0.715372D-02
     18  0.257591D-02 -0.257622D-02  0.000000D+00  0.715372D-02  0.715372D-02
               16            17            18 
     16  0.143200D+00
     17  0.612684D-01  0.171833D+00
     18  0.206595D-01 -0.446449D-03  0.215526D-01
 Leave Link  716 at Wed May 26 19:10:27 2021, MaxMem=   13107200 cpu:       0.0
 (Enter /programs/64bit/g09/g09-gfortran/bin/l103.exe)

 GradGradGradGradGradGradGradGradGradGradGradGradGradGradGradGradGradGrad
 Berny optimization.
 Search for a local minimum.
 Step number   1 out of a maximum of    2
 All quantities printed in internal units (Hartrees-Bohrs-Radians)
 Second derivative matrix not updated -- first step.
 The second derivative matrix:
                          d1        a1        t1        d2        a2
           d1           0.31979
           a1           0.00000   0.39446
           t1          -0.00000   0.03525   0.19847
           d2           0.00000   0.00000   0.00000   0.47688
           a2          -0.00000   0.08178   0.02393   0.00000   0.32674
           t2          -0.00000  -0.00111  -0.13739  -0.00000  -0.02613
           d3           0.00000   0.00000   0.00000  -0.00000  -0.00000
           d4           0.00000   0.00000   0.00000  -0.00000   0.00000
           a3          -0.00000   0.16061   0.03073   0.00000   0.00743
           d5           0.00000   0.00000  -0.00000   0.00000   0.00000
           a4          -0.00000   0.00000   0.00000   0.00000  -0.00000
           t3          -0.00000   0.00000   0.02146   0.00000   0.00000
           d6          -0.00000   0.00000   0.00000   0.00000   0.00000
           a5           0.00000   0.00000  -0.00000   0.00000  -0.00000
           t4          -0.00000   0.00000   0.00715   0.00000   0.00000
           d7          -0.00000   0.00000  -0.00000   0.00000  -0.00000
           a6           0.00000   0.00000  -0.00000   0.00000  -0.00000
           t5          -0.00000   0.00000   0.00715   0.00000   0.00000
                          t2        d3        d4        a3        d5
           t2           0.19935
           d3          -0.00000   0.47688
           d4          -0.00000  -0.00000   0.25570
           a3          -0.03070  -0.00000   0.00000   0.32826
           d5          -0.00000  -0.00000   0.00000  -0.00000   0.30570
           a4           0.00000   0.00000  -0.00000   0.00000  -0.00000
           t3           0.02146  -0.00000  -0.00000  -0.00000   0.00000
           d6           0.00000  -0.00000  -0.00000   0.00000   0.00000
           a5          -0.00000   0.00000   0.00000  -0.00000   0.00000
           t4           0.00715  -0.00000  -0.00000   0.00000  -0.00000
           d7          -0.00000   0.00000  -0.00000  -0.00000  -0.00000
           a6           0.00000   0.00000   0.00000  -0.00000   0.00000
           t5           0.00715  -0.00000  -0.00000  -0.00000   0.00000
                          a4        t3        d6        a5        t4
           a4           0.35899
           t3           0.00041   0.14320
           d6           0.00000   0.00000   0.32428
           a5           0.03904  -0.00041  -0.00000   0.35900
           t4          -0.06468   0.06127   0.00000  -0.06251   0.17183
           d7           0.00000   0.00000  -0.00000   0.00000  -0.00000
           a6           0.08171   0.00000  -0.00000   0.08170  -0.03602
           t5           0.00258   0.02066   0.00000  -0.00258  -0.00045
                          d7        a6        t5
           d7           0.47688
           a6           0.00000   0.30904
           t5          -0.00000   0.00000   0.02155
     Eigenvalues --- 1000.000001000.000001000.000001000.000001000.00000
     Eigenvalues --- 1000.000001000.000001000.000001000.000001000.00000
     Eigenvalues --- 1000.000001000.000001000.000001000.000001000.00000
     Eigenvalues --- 1000.000001000.000001000.00000
 Angle between quadratic step and forces=  90.00 degrees.
 Linear search not attempted -- first point.
 Variable       Old X    -DE/DX   Delta X   Delta X   Delta X     New X
                                 (Linear)    (Quad)   (Total)
    d1        2.84181  -0.00786   0.00000   0.00000   0.00000   2.84181
    a1        3.12259  -0.18362   0.00000   0.00000   0.00000   3.12259
    t1        2.09329  -0.12016   0.00000   0.00000   0.00000   2.09329
    d2        1.88973   0.09156   0.00000   0.00000   0.00000   1.88973
    a2        1.91879  -0.12452   0.00000   0.00000   0.00000   1.91879
    t2       -3.12303   0.12105   0.00000   0.00000   0.00000  -3.12303
    d3        1.88973   0.11534   0.00000   0.00000   0.00000   1.88973
    d4        2.24481   0.00386   0.00000   0.00000   0.00000   2.24481
    a3        1.90121  -0.09259   0.00000   0.00000   0.00000   1.90121
    d5        2.13542  -0.00200   0.00000   0.00000   0.00000   2.13542
    a4        1.90148  -0.06956   0.00000   0.00000   0.00000   1.90148
    t3        3.14158  -0.00166   0.00000   0.00000   0.00000   3.14158
    d6        2.10067   0.01256   0.00000   0.00000   0.00000   2.10067
    a5        1.90149  -0.06695   0.00000   0.00000   0.00000   1.90149
    t4        2.09451  -0.05697   0.00000   0.00000   0.00000   2.09451
    d7        1.88973   0.09309   0.00000   0.00000   0.00000   1.88973
    a6        3.12291  -0.20559   0.00000   0.00000   0.00000   3.12291
    t5       -2.09440   0.00003   0.00000   0.00000   0.00000  -2.09440
         Item               Value     Threshold  Converged?
 Maximum Force            0.000000     0.000450     YES
 RMS     Force            0.000000     0.000300     YES
 Maximum Displacement     0.000000     0.001800     YES
 RMS     Displacement     0.000000     0.001200     YES
 Predicted change in Energy=-0.000000D+00
 Optimization completed.
    -- Stationary point found.
                       ----------------------------
                       !   Optimized Parameters   !
                       ! (Angstroms and Degrees)  !
 ----------------------                            ----------------------
 !      Name          Value   Derivative information (Atomic Units)     !
 ------------------------------------------------------------------------
 !       d1          1.5038   -DE/DX =   -0.0079                        !
 !       a1        178.9113   -DE/DX =   -0.1836                        !
 !       t1        119.9369   -DE/DX =   -0.1202                        !
 !       d2          1.0      -DE/DX =    0.0916                        !
 !       a2        109.9386   -DE/DX =   -0.1245                        !
 !       t2       -178.9363   -DE/DX =    0.121                         !
 !       d3          1.0      -DE/DX =    0.1153                        !
 !       d4          1.1879   -DE/DX =    0.0039                        !
 !       a3        108.9313   -DE/DX =   -0.0926                        !
 !       d5          1.13     -DE/DX =   -0.002                         !
 !       a4        108.947    -DE/DX =   -0.0696                        !
 !       t3        179.9996   -DE/DX =   -0.0017                        !
 !       d6          1.1116   -DE/DX =    0.0126                        !
 !       a5        108.9475   -DE/DX =   -0.067                         !
 !       t4        120.0067   -DE/DX =   -0.057                         !
 !       d7          1.0      -DE/DX =    0.0931                        !
 !       a6        178.9295   -DE/DX =   -0.2056                        !
 !       t5       -120.0      -DE/DX =    0.0                           !
 ------------------------------------------------------------------------
 GradGradGradGradGradGradGradGradGradGradGradGradGradGradGradGradGradGrad

 Leave Link  103 at Wed May 26 19:10:27 2021, MaxMem=   13107200 cpu:       0.0
 (Enter /programs/64bit/g09/g09-gfortran/bin/l9999.exe)
 1\1\GINC-MOLMOD\Force\RB3LYP\6-31+G(d,p)\C2H6\OSPITE\26-May-2021\1\\#p
  b3lyp/6-31+g(d,p) force nosym\\c2h6 molecule\\0,1\C\C,1,d1\H,1,d2,2,a
 1\H,1,d3,2,a2,3,t1,0\H,1,d4,2,a3,3,t2,0\H,2,d5,1,a4,3,t3,0\H,2,d6,1,a5
 ,6,t4,0\H,2,d7,1,a6,6,t5,0\\d1=1.50382331\a1=178.91125342\t1=119.93685
 288\d2=1.\a2=109.93862443\t2=-178.93627738\d3=1.\d4=1.1879004\a3=108.9
 3131778\d5=1.13001517\a4=108.94698878\t3=179.99955415\d6=1.11162574\a5
 =108.94747352\t4=120.00665741\d7=1.\a6=178.92950788\t5=-119.99999826\\
 Version=EM64L-G09RevA.02\HF=-79.5177938\RMSD=3.150e-09\RMSF=6.085e-02\
 Dipole=-0.3755692,-0.4437942,0.1310543\Quadrupole=-0.6514698,-2.022491
 5,2.6739613,-0.1110896,-0.092538,-0.4420551\PG=C01 [X(C2H6)]\\@


 KINETICS       FACT
 ---------  =  -------
 MECHANISM     FICTION
 Job cpu time:  0 days  0 hours  0 minutes  9.8 seconds.
 File lengths (MBytes):  RWF=      5 Int=      0 D2E=      0 Chk=      1 Scr=      1
 Normal termination of Gaussian 09 at Wed May 26 19:10:27 2021.
