 Entering Gaussian System, Link 0=g09
 Input=c2h6_013.com
 Output=c2h6_013.log
 Initial command:
 /programs/64bit/g09/g09-gfortran/bin/l1.exe /data/scratch/Gau-6150.inp -scrdir=/data/scratch/
 Entering Link 1 = /programs/64bit/g09/g09-gfortran/bin/l1.exe PID=      6151.
  
 Copyright (c) 1988,1990,1992,1993,1995,1998,2003,2009, Gaussian, Inc.
                  All Rights Reserved.
  
 This is part of the Gaussian(R) 09 program.  It is based on
 the Gaussian(R) 03 system (copyright 2003, Gaussian, Inc.),
 the Gaussian(R) 98 system (copyright 1998, Gaussian, Inc.),
 the Gaussian(R) 94 system (copyright 1995, Gaussian, Inc.),
 the Gaussian 92(TM) system (copyright 1992, Gaussian, Inc.),
 the Gaussian 90(TM) system (copyright 1990, Gaussian, Inc.),
 the Gaussian 88(TM) system (copyright 1988, Gaussian, Inc.),
 the Gaussian 86(TM) system (copyright 1986, Carnegie Mellon
 University), and the Gaussian 82(TM) system (copyright 1983,
 Carnegie Mellon University). Gaussian is a federally registered
 trademark of Gaussian, Inc.
  
 This software contains proprietary and confidential information,
 including trade secrets, belonging to Gaussian, Inc.
  
 This software is provided under written license and may be
 used, copied, transmitted, or stored only in accord with that
 written license.
  
 The following legend is applicable only to US Government
 contracts under FAR:
  
                    RESTRICTED RIGHTS LEGEND
  
 Use, reproduction and disclosure by the US Government is
 subject to restrictions as set forth in subparagraphs (a)
 and (c) of the Commercial Computer Software - Restricted
 Rights clause in FAR 52.227-19.
  
 Gaussian, Inc.
 340 Quinnipiac St., Bldg. 40, Wallingford CT 06492
  
  
 ---------------------------------------------------------------
 Warning -- This program may not be used in any manner that
 competes with the business of Gaussian, Inc. or will provide
 assistance to any competitor of Gaussian, Inc.  The licensee
 of this program is prohibited from giving any competitor of
 Gaussian, Inc. access to this program.  By using this program,
 the user acknowledges that Gaussian, Inc. is engaged in the
 business of creating and licensing software in the field of
 computational chemistry and represents and warrants to the
 licensee that it is not a competitor of Gaussian, Inc. and that
 it will not use this program in any manner prohibited above.
 ---------------------------------------------------------------
  

 Cite this work as:
 Gaussian 09, Revision A.02,
 M. J. Frisch, G. W. Trucks, H. B. Schlegel, G. E. Scuseria, 
 M. A. Robb, J. R. Cheeseman, G. Scalmani, V. Barone, B. Mennucci, 
 G. A. Petersson, H. Nakatsuji, M. Caricato, X. Li, H. P. Hratchian, 
 A. F. Izmaylov, J. Bloino, G. Zheng, J. L. Sonnenberg, M. Hada, 
 M. Ehara, K. Toyota, R. Fukuda, J. Hasegawa, M. Ishida, T. Nakajima, 
 Y. Honda, O. Kitao, H. Nakai, T. Vreven, J. A. Montgomery, Jr., 
 J. E. Peralta, F. Ogliaro, M. Bearpark, J. J. Heyd, E. Brothers, 
 K. N. Kudin, V. N. Staroverov, R. Kobayashi, J. Normand, 
 K. Raghavachari, A. Rendell, J. C. Burant, S. S. Iyengar, J. Tomasi, 
 M. Cossi, N. Rega, J. M. Millam, M. Klene, J. E. Knox, J. B. Cross, 
 V. Bakken, C. Adamo, J. Jaramillo, R. Gomperts, R. E. Stratmann, 
 O. Yazyev, A. J. Austin, R. Cammi, C. Pomelli, J. W. Ochterski, 
 R. L. Martin, K. Morokuma, V. G. Zakrzewski, G. A. Voth, 
 P. Salvador, J. J. Dannenberg, S. Dapprich, A. D. Daniels, 
 O. Farkas, J. B. Foresman, J. V. Ortiz, J. Cioslowski, 
 and D. J. Fox, Gaussian, Inc., Wallingford CT, 2009.
 
 ******************************************
 Gaussian 09:  EM64L-G09RevA.02 11-Jun-2009
                26-May-2021 
 ******************************************
 %chk=c2h6_013.chk
 %mem=100MB
 --------------------------------
 #p b3lyp/6-31+g(d,p) force nosym
 --------------------------------
 1/10=7,30=1,38=1/1,3;
 2/12=2,15=1,17=6,18=5,40=1/2;
 3/5=1,6=6,7=111,11=2,16=1,25=1,30=1,71=1,74=-5/1,2,3;
 4//1;
 5/5=2,38=5/2;
 6/7=2,8=2,9=2,10=2,28=1/1;
 7/29=1,30=1/1,2,3,16;
 1/10=7,30=1/3;
 99//99;
 Leave Link    1 at Wed May 26 19:09:56 2021, MaxMem=   13107200 cpu:       0.0
 (Enter /programs/64bit/g09/g09-gfortran/bin/l101.exe)
 -------------
 c2h6 molecule
 -------------
 Symbolic Z-matrix:
 Charge =  0 Multiplicity = 1
 C1
 C2                   1    d1
 H3                   1    d2       2    a1
 H4                   1    d3       2    a2       3    t1       0
 H5                   1    d4       2    a3       3    t2       0
 H6                   2    d5       1    a4       3    t3       0
 H7                   2    d6       1    a5       6    t4       0
 H8                   2    d7       1    a6       6    t5       0
       Variables:
       Constants:
  d1                    1.57251                  
  a1                  177.98057                  
  t1                  119.23558                  
  d2                    1.23773                  
  a2                  109.21985                  
  t2                 -178.23157                  
  d3                    1.4365                   
  d4                    1.10711                  
  a3                  108.15105                  
  d5                    1.08174                  
  a4                  108.31188                  
  t3                  179.99451                  
  d6                    1.11116                  
  a5                  108.31395                  
  t4                  120.13564                  
  d7                    1.58897                  
  a6                  178.24482                  
  t5                 -120.                       
 
 NAtoms=      8 NQM=      8 NQMF=      0 NMic=      0 NMicF=      0 NTot=      8.
                    Isotopes and Nuclear Properties:
 (Nuclear quadrupole moments (NQMom) in fm**2, nuclear magnetic moments (NMagM)
  in nuclear magnetons)

  Atom         1           2           3           4           5           6           7           8
 IAtWgt=          12          12           1           1           1           1           1           1
 AtmWgt=  12.0000000  12.0000000   1.0078250   1.0078250   1.0078250   1.0078250   1.0078250   1.0078250
 NucSpn=           0           0           1           1           1           1           1           1
 AtZEff=   0.0000000   0.0000000   0.0000000   0.0000000   0.0000000   0.0000000   0.0000000   0.0000000
 NQMom=    0.0000000   0.0000000   0.0000000   0.0000000   0.0000000   0.0000000   0.0000000   0.0000000
 NMagM=    0.0000000   0.0000000   2.7928460   2.7928460   2.7928460   2.7928460   2.7928460   2.7928460
 Leave Link  101 at Wed May 26 19:09:56 2021, MaxMem=   13107200 cpu:       0.0
 (Enter /programs/64bit/g09/g09-gfortran/bin/l103.exe)

 GradGradGradGradGradGradGradGradGradGradGradGradGradGradGradGradGradGrad
 Berny optimization.
 Initialization pass.
                       ----------------------------
                       !    Initial Parameters    !
                       ! (Angstroms and Degrees)  !
 ----------------------                            ----------------------
 !      Name          Value   Derivative information (Atomic Units)     !
 ------------------------------------------------------------------------
 !       d1          1.5725   Frozen                                    !
 !       a1        177.9806   Frozen                                    !
 !       t1        119.2356   Frozen                                    !
 !       d2          1.2377   Frozen                                    !
 !       a2        109.2199   Frozen                                    !
 !       t2       -178.2316   Frozen                                    !
 !       d3          1.4365   Frozen                                    !
 !       d4          1.1071   Frozen                                    !
 !       a3        108.151    Frozen                                    !
 !       d5          1.0817   Frozen                                    !
 !       a4        108.3119   Frozen                                    !
 !       t3        179.9945   Frozen                                    !
 !       d6          1.1112   Frozen                                    !
 !       a5        108.3139   Frozen                                    !
 !       t4        120.1356   Frozen                                    !
 !       d7          1.589    Frozen                                    !
 !       a6        178.2448   Frozen                                    !
 !       t5       -120.0      Frozen                                    !
 ------------------------------------------------------------------------
 Trust Radius=3.00D-01 FncErr=1.00D-07 GrdErr=1.00D-07
 Number of steps in this run=   2 maximum allowed number of steps=   2.
 GradGradGradGradGradGradGradGradGradGradGradGradGradGradGradGradGradGrad

 Leave Link  103 at Wed May 26 19:09:56 2021, MaxMem=   13107200 cpu:       0.0
 (Enter /programs/64bit/g09/g09-gfortran/bin/l202.exe)
                          Input orientation:                          
 ---------------------------------------------------------------------
 Center     Atomic      Atomic             Coordinates (Angstroms)
 Number     Number       Type             X           Y           Z
 ---------------------------------------------------------------------
      1          6           0        0.000000    0.000000    0.000000
      2          6           0        0.000000    0.000000    1.572506
      3          1           0        0.043616    0.000000   -1.236966
      4          1           0       -0.662484   -1.183650   -0.472887
      5          1           0       -1.051517    0.032465   -0.344890
      6          1           0       -1.026965    0.000098    1.912379
      7          1           0        0.529511   -0.912348    1.921657
      8          1           0        0.024338    0.042146    3.160734
 ---------------------------------------------------------------------
                    Distance matrix (angstroms):
                    1          2          3          4          5
     1  C    0.000000
     2  C    1.572506   0.000000
     3  H    1.237734   2.809810   0.000000
     4  H    1.436501   2.454292   1.575887   0.000000
     5  H    1.107109   2.187041   1.412858   1.283225   0.000000
     6  H    2.170679   1.081744   3.326336   2.687675   2.257634
     7  H    2.192151   1.111156   3.323458   2.688550   2.920541
     8  H    3.161108   1.588973   4.397943   3.895831   3.667009
                    6          7          8
     6  H    0.000000
     7  H    1.804234   0.000000
     8  H    1.632604   1.643644   0.000000
 Symmetry turned off by external request.
 Stoichiometry    C2H6
 Framework group  C1[X(C2H6)]
 Deg. of freedom    18
 Full point group                 C1      NOp   1
 Rotational constants (GHZ):    105.8115760     15.6532807     15.3691931
 Leave Link  202 at Wed May 26 19:09:56 2021, MaxMem=   13107200 cpu:       0.0
 (Enter /programs/64bit/g09/g09-gfortran/bin/l301.exe)
 Standard basis: 6-31+G(d,p) (6D, 7F)
 Ernie: Thresh=  0.10000D-02 Tol=  0.10000D-05 Strict=F.
 Integral buffers will be    131072 words long.
 Raffenetti 2 integral format.
 Two-electron integral symmetry is turned off.
    68 basis functions,   106 primitive gaussians,    68 cartesian basis functions
     9 alpha electrons        9 beta electrons
       nuclear repulsion energy        38.9299167272 Hartrees.
 IExCor=  402 DFT=T Ex+Corr=B3LYP ExCW=0 ScaHFX=  0.200000
 ScaDFX=  0.800000  0.720000  1.000000  0.810000 ScalE2=  1.000000  1.000000
 IRadAn=      0 IRanWt=     -1 IRanGd=            0 ICorTp=0
 NAtoms=    8 NActive=    8 NUniq=    8 SFac= 7.50D-01 NAtFMM=   80 NAOKFM=F Big=F
 Leave Link  301 at Wed May 26 19:09:56 2021, MaxMem=   13107200 cpu:       0.0
 (Enter /programs/64bit/g09/g09-gfortran/bin/l302.exe)
 NPDir=0 NMtPBC=     1 NCelOv=     1 NCel=       1 NClECP=     1 NCelD=      1
         NCelK=      1 NCelE2=     1 NClLst=     1 CellRange=     0.0.
 One-electron integrals computed using PRISM.
 NBasis=    68 RedAO= T  NBF=    68
 NBsUse=    68 1.00D-06 NBFU=    68
 Precomputing XC quadrature grid using
 IXCGrd= 2 IRadAn=           0 IRanWt=          -1 IRanGd=           0 AccXCQ= 1.00D-10.
 NRdTot=     510 NPtTot=       65100 NUsed=       68787 NTot=       68819
 NSgBfM=    68    68    68    68    68 NAtAll=     8     8.
 Leave Link  302 at Wed May 26 19:09:56 2021, MaxMem=   13107200 cpu:       0.1
 (Enter /programs/64bit/g09/g09-gfortran/bin/l303.exe)
 DipDrv:  MaxL=1.
 Leave Link  303 at Wed May 26 19:09:56 2021, MaxMem=   13107200 cpu:       0.0
 (Enter /programs/64bit/g09/g09-gfortran/bin/l401.exe)
 Harris functional with IExCor=  402 diagonalized for initial guess.
 ExpMin= 4.38D-02 ExpMax= 3.05D+03 ExpMxC= 4.57D+02 IAcc=2 IRadAn=         0 AccDes= 0.00D+00
 HarFok:  IExCor=  402 AccDes= 0.00D+00 IRadAn=         0 IDoV= 1
 ScaDFX=  1.000000  1.000000  1.000000  1.000000
 FoFCou: FMM=F IPFlag=           0 FMFlag=      100000 FMFlg1=           0
         NFxFlg=           0 DoJE=T BraDBF=F KetDBF=T FulRan=T
         Omega=  0.000000  0.000000  1.000000  0.000000  0.000000 ICntrl=     500 IOpCl=  0
         NMat0=    1 NMatS0=    1 NMatT0=    0 NMatD0=    1 NMtDS0=    0 NMtDT0=    0
         I1Cent=           4 NGrid=           0.
 Symmetry not used in FoFCou.
 Harris En= -79.5282256311647    
 Leave Link  401 at Wed May 26 19:09:57 2021, MaxMem=   13107200 cpu:       0.7
 (Enter /programs/64bit/g09/g09-gfortran/bin/l502.exe)
 Closed shell SCF:
 Requested convergence on RMS density matrix=1.00D-08 within 128 cycles.
 Requested convergence on MAX density matrix=1.00D-06.
 Requested convergence on             energy=1.00D-06.
 No special actions if energy rises.
 Using DIIS extrapolation, IDIIS=  1040.
 Two-electron integral symmetry not used.
        68702 words used for storage of precomputed grid.
 Keep R1 ints in memory in canonical form, NReq=3743087.
 IEnd=      101552 IEndB=      101552 NGot=    13107200 MDV=    10273922
 LenX=    10273922 LenY=    10268857
 Symmetry not used in FoFDir.
 MinBra= 0 MaxBra= 2 Meth= 1.
 IRaf=       0 NMat=   1 IRICut=       1 DoRegI=T DoRafI=F ISym2E= 0 JSym2E=0.

 Cycle   1  Pass 1  IDiag  1:
 E= -79.3625682821308    
 DIIS: error= 4.23D-02 at cycle   1 NSaved=   1.
 NSaved= 1 IEnMin= 1 EnMin= -79.3625682821308     IErMin= 1 ErrMin= 4.23D-02
 ErrMax= 4.23D-02 EMaxC= 1.00D-01 BMatC= 1.06D-01 BMatP= 1.06D-01
 IDIUse=3 WtCom= 5.77D-01 WtEn= 4.23D-01
 Coeff-Com:  0.100D+01
 Coeff-En:   0.100D+01
 Coeff:      0.100D+01
 Gap=     0.074 Goal=   None    Shift=    0.000
 GapD=    0.074 DampG=0.500 DampE=0.500 DampFc=0.2500 IDamp=-1.
 Damping current iteration by 2.50D-01
 RMSDP=5.76D-02 MaxDP=1.51D+00              OVMax= 4.02D-01

 Cycle   2  Pass 1  IDiag  1:
 E= -79.4148186722917     Delta-E=       -0.052250390161 Rises=F Damp=T
 DIIS: error= 1.05D-02 at cycle   2 NSaved=   2.
 NSaved= 2 IEnMin= 2 EnMin= -79.4148186722917     IErMin= 2 ErrMin= 1.05D-02
 ErrMax= 1.05D-02 EMaxC= 1.00D-01 BMatC= 1.18D-02 BMatP= 1.06D-01
 IDIUse=3 WtCom= 8.95D-01 WtEn= 1.05D-01
 Coeff-Com: -0.349D+00 0.135D+01
 Coeff-En:   0.000D+00 0.100D+01
 Coeff:     -0.312D+00 0.131D+01
 Gap=     0.139 Goal=   None    Shift=    0.000
 RMSDP=8.45D-03 MaxDP=2.23D-01 DE=-5.23D-02 OVMax= 2.76D-01

 Cycle   3  Pass 1  IDiag  1:
 E= -79.4970579213406     Delta-E=       -0.082239249049 Rises=F Damp=F
 DIIS: error= 2.89D-03 at cycle   3 NSaved=   3.
 NSaved= 3 IEnMin= 3 EnMin= -79.4970579213406     IErMin= 3 ErrMin= 2.89D-03
 ErrMax= 2.89D-03 EMaxC= 1.00D-01 BMatC= 7.00D-04 BMatP= 1.18D-02
 IDIUse=3 WtCom= 9.71D-01 WtEn= 2.89D-02
 Coeff-Com: -0.209D-01 0.213D+00 0.808D+00
 Coeff-En:   0.000D+00 0.000D+00 0.100D+01
 Coeff:     -0.203D-01 0.207D+00 0.813D+00
 Gap=     0.137 Goal=   None    Shift=    0.000
 RMSDP=1.11D-03 MaxDP=1.28D-02 DE=-8.22D-02 OVMax= 1.39D-02

 Cycle   4  Pass 1  IDiag  1:
 E= -79.4977998999036     Delta-E=       -0.000741978563 Rises=F Damp=F
 DIIS: error= 7.93D-04 at cycle   4 NSaved=   4.
 NSaved= 4 IEnMin= 4 EnMin= -79.4977998999036     IErMin= 4 ErrMin= 7.93D-04
 ErrMax= 7.93D-04 EMaxC= 1.00D-01 BMatC= 8.01D-05 BMatP= 7.00D-04
 IDIUse=3 WtCom= 9.92D-01 WtEn= 7.93D-03
 Coeff-Com:  0.274D-01-0.283D-01 0.243D+00 0.758D+00
 Coeff-En:   0.000D+00 0.000D+00 0.000D+00 0.100D+01
 Coeff:      0.272D-01-0.280D-01 0.241D+00 0.760D+00
 Gap=     0.135 Goal=   None    Shift=    0.000
 RMSDP=4.42D-04 MaxDP=8.28D-03 DE=-7.42D-04 OVMax= 6.95D-03

 Cycle   5  Pass 1  IDiag  1:
 E= -79.4979014484796     Delta-E=       -0.000101548576 Rises=F Damp=F
 DIIS: error= 2.96D-04 at cycle   5 NSaved=   5.
 NSaved= 5 IEnMin= 5 EnMin= -79.4979014484796     IErMin= 5 ErrMin= 2.96D-04
 ErrMax= 2.96D-04 EMaxC= 1.00D-01 BMatC= 5.82D-06 BMatP= 8.01D-05
 IDIUse=3 WtCom= 9.97D-01 WtEn= 2.96D-03
 Coeff-Com:  0.150D-01-0.237D-01 0.646D-01 0.299D+00 0.645D+00
 Coeff-En:   0.000D+00 0.000D+00 0.000D+00 0.000D+00 0.100D+01
 Coeff:      0.150D-01-0.236D-01 0.644D-01 0.298D+00 0.646D+00
 Gap=     0.136 Goal=   None    Shift=    0.000
 RMSDP=1.09D-04 MaxDP=1.60D-03 DE=-1.02D-04 OVMax= 3.52D-03

 Cycle   6  Pass 1  IDiag  1:
 E= -79.4979114240144     Delta-E=       -0.000009975535 Rises=F Damp=F
 DIIS: error= 7.93D-05 at cycle   6 NSaved=   6.
 NSaved= 6 IEnMin= 6 EnMin= -79.4979114240144     IErMin= 6 ErrMin= 7.93D-05
 ErrMax= 7.93D-05 EMaxC= 1.00D-01 BMatC= 7.25D-07 BMatP= 5.82D-06
 IDIUse=1 WtCom= 1.00D+00 WtEn= 0.00D+00
 Coeff-Com:  0.589D-02-0.924D-02 0.228D-01 0.120D+00 0.330D+00 0.531D+00
 Coeff:      0.589D-02-0.924D-02 0.228D-01 0.120D+00 0.330D+00 0.531D+00
 Gap=     0.136 Goal=   None    Shift=    0.000
 RMSDP=4.17D-05 MaxDP=7.55D-04 DE=-9.98D-06 OVMax= 9.48D-04

 Cycle   7  Pass 1  IDiag  1:
 E= -79.4979124014299     Delta-E=       -0.000000977415 Rises=F Damp=F
 DIIS: error= 3.82D-05 at cycle   7 NSaved=   7.
 NSaved= 7 IEnMin= 7 EnMin= -79.4979124014299     IErMin= 7 ErrMin= 3.82D-05
 ErrMax= 3.82D-05 EMaxC= 1.00D-01 BMatC= 1.37D-07 BMatP= 7.25D-07
 IDIUse=1 WtCom= 1.00D+00 WtEn= 0.00D+00
 Coeff-Com:  0.813D-03-0.108D-02 0.185D-02 0.164D-01 0.802D-01 0.324D+00
 Coeff-Com:  0.578D+00
 Coeff:      0.813D-03-0.108D-02 0.185D-02 0.164D-01 0.802D-01 0.324D+00
 Coeff:      0.578D+00
 Gap=     0.136 Goal=   None    Shift=    0.000
 RMSDP=6.45D-06 MaxDP=1.08D-04 DE=-9.77D-07 OVMax= 1.23D-04

 Cycle   8  Pass 1  IDiag  1:
 E= -79.4979125440493     Delta-E=       -0.000000142619 Rises=F Damp=F
 DIIS: error= 8.08D-06 at cycle   8 NSaved=   8.
 NSaved= 8 IEnMin= 8 EnMin= -79.4979125440493     IErMin= 8 ErrMin= 8.08D-06
 ErrMax= 8.08D-06 EMaxC= 1.00D-01 BMatC= 3.58D-09 BMatP= 1.37D-07
 IDIUse=1 WtCom= 1.00D+00 WtEn= 0.00D+00
 Coeff-Com: -0.242D-04 0.838D-04-0.985D-03-0.262D-02-0.221D-02 0.796D-01
 Coeff-Com:  0.151D+00 0.775D+00
 Coeff:     -0.242D-04 0.838D-04-0.985D-03-0.262D-02-0.221D-02 0.796D-01
 Coeff:      0.151D+00 0.775D+00
 Gap=     0.136 Goal=   None    Shift=    0.000
 RMSDP=1.91D-06 MaxDP=3.27D-05 DE=-1.43D-07 OVMax= 5.43D-05

 Cycle   9  Pass 1  IDiag  1:
 E= -79.4979125508872     Delta-E=       -0.000000006838 Rises=F Damp=F
 DIIS: error= 5.19D-07 at cycle   9 NSaved=   9.
 NSaved= 9 IEnMin= 9 EnMin= -79.4979125508872     IErMin= 9 ErrMin= 5.19D-07
 ErrMax= 5.19D-07 EMaxC= 1.00D-01 BMatC= 3.37D-11 BMatP= 3.58D-09
 IDIUse=1 WtCom= 1.00D+00 WtEn= 0.00D+00
 Coeff-Com: -0.308D-04 0.443D-04-0.132D-03-0.642D-03-0.366D-02-0.696D-03
 Coeff-Com: -0.509D-02 0.685D-01 0.942D+00
 Coeff:     -0.308D-04 0.443D-04-0.132D-03-0.642D-03-0.366D-02-0.696D-03
 Coeff:     -0.509D-02 0.685D-01 0.942D+00
 Gap=     0.136 Goal=   None    Shift=    0.000
 RMSDP=6.74D-07 MaxDP=1.49D-05 DE=-6.84D-09 OVMax= 4.84D-06

 Cycle  10  Pass 1  IDiag  1:
 E= -79.4979125509500     Delta-E=       -0.000000000063 Rises=F Damp=F
 DIIS: error= 9.60D-08 at cycle  10 NSaved=  10.
 NSaved=10 IEnMin=10 EnMin= -79.4979125509500     IErMin=10 ErrMin= 9.60D-08
 ErrMax= 9.60D-08 EMaxC= 1.00D-01 BMatC= 7.27D-13 BMatP= 3.37D-11
 IDIUse=1 WtCom= 1.00D+00 WtEn= 0.00D+00
 Coeff-Com:  0.245D-06-0.370D-05 0.135D-04 0.486D-04-0.231D-03-0.176D-02
 Coeff-Com: -0.361D-02-0.161D-01 0.951D-01 0.927D+00
 Coeff:      0.245D-06-0.370D-05 0.135D-04 0.486D-04-0.231D-03-0.176D-02
 Coeff:     -0.361D-02-0.161D-01 0.951D-01 0.927D+00
 Gap=     0.136 Goal=   None    Shift=    0.000
 RMSDP=1.16D-07 MaxDP=2.26D-06 DE=-6.28D-11 OVMax= 1.44D-06

 Cycle  11  Pass 1  IDiag  1:
 E= -79.4979125509519     Delta-E=       -0.000000000002 Rises=F Damp=F
 DIIS: error= 5.06D-08 at cycle  11 NSaved=  11.
 NSaved=11 IEnMin=11 EnMin= -79.4979125509519     IErMin=11 ErrMin= 5.06D-08
 ErrMax= 5.06D-08 EMaxC= 1.00D-01 BMatC= 1.07D-13 BMatP= 7.27D-13
 IDIUse=1 WtCom= 1.00D+00 WtEn= 0.00D+00
 Coeff-Com:  0.838D-06-0.996D-06 0.280D-05 0.992D-05 0.311D-04-0.192D-03
 Coeff-Com: -0.446D-03-0.450D-02-0.296D-01 0.651D-01 0.970D+00
 Coeff:      0.838D-06-0.996D-06 0.280D-05 0.992D-05 0.311D-04-0.192D-03
 Coeff:     -0.446D-03-0.450D-02-0.296D-01 0.651D-01 0.970D+00
 Gap=     0.136 Goal=   None    Shift=    0.000
 RMSDP=1.67D-08 MaxDP=2.16D-07 DE=-1.88D-12 OVMax= 3.46D-07

 Cycle  12  Pass 1  IDiag  1:
 E= -79.4979125509517     Delta-E=        0.000000000000 Rises=F Damp=F
 DIIS: error= 4.47D-09 at cycle  12 NSaved=  12.
 NSaved=12 IEnMin=11 EnMin= -79.4979125509519     IErMin=12 ErrMin= 4.47D-09
 ErrMax= 4.47D-09 EMaxC= 1.00D-01 BMatC= 1.11D-15 BMatP= 1.07D-13
 IDIUse=1 WtCom= 1.00D+00 WtEn= 0.00D+00
 Coeff-Com:  0.415D-07 0.325D-07 0.278D-06 0.187D-05 0.775D-05 0.221D-05
 Coeff-Com: -0.110D-04-0.191D-03-0.329D-02 0.747D-03 0.111D+00 0.891D+00
 Coeff:      0.415D-07 0.325D-07 0.278D-06 0.187D-05 0.775D-05 0.221D-05
 Coeff:     -0.110D-04-0.191D-03-0.329D-02 0.747D-03 0.111D+00 0.891D+00
 Gap=     0.136 Goal=   None    Shift=    0.000
 RMSDP=2.27D-09 MaxDP=4.00D-08 DE= 1.99D-13 OVMax= 2.73D-08

 SCF Done:  E(RB3LYP) =  -79.4979125510     A.U. after   12 cycles
             Convg  =    0.2266D-08             -V/T =  2.0172
 KE= 7.815275441583D+01 PE=-2.601801827943D+02 EE= 6.359959910027D+01
 Leave Link  502 at Wed May 26 19:10:04 2021, MaxMem=   13107200 cpu:       7.7
 (Enter /programs/64bit/g09/g09-gfortran/bin/l601.exe)
 Copying SCF densities to generalized density rwf, IOpCl= 0 IROHF=0.

 **********************************************************************

            Population analysis using the SCF density.

 **********************************************************************

 Alpha  occ. eigenvalues --  -10.25127 -10.25060  -0.76023  -0.64988  -0.46062
 Alpha  occ. eigenvalues --   -0.43595  -0.35372  -0.29265  -0.24244
 Alpha virt. eigenvalues --   -0.10681  -0.01410   0.00512   0.05183   0.05340
 Alpha virt. eigenvalues --    0.06420   0.08308   0.08937   0.09988   0.14268
 Alpha virt. eigenvalues --    0.15971   0.17468   0.22246   0.26626   0.33341
 Alpha virt. eigenvalues --    0.63946   0.66518   0.68044   0.70111   0.72220
 Alpha virt. eigenvalues --    0.78327   0.83503   0.85965   0.91532   0.93964
 Alpha virt. eigenvalues --    0.98437   1.03991   1.12903   1.18171   1.30569
 Alpha virt. eigenvalues --    1.35502   1.51824   1.61242   1.69581   1.80647
 Alpha virt. eigenvalues --    1.85554   1.91657   1.94811   2.06401   2.09329
 Alpha virt. eigenvalues --    2.16354   2.20450   2.24051   2.28094   2.34280
 Alpha virt. eigenvalues --    2.41243   2.49742   2.58226   2.67071   2.71707
 Alpha virt. eigenvalues --    2.79214   2.85380   2.94483   3.14467   3.24125
 Alpha virt. eigenvalues --    3.38823   3.47036   4.17532   4.57996
          Condensed to atoms (all electrons):
              1          2          3          4          5          6
     1  C    5.749109  -0.136223   0.324472   0.369820   0.271094  -0.129826
     2  C   -0.136223   5.493097   0.046694  -0.131998  -0.015282   0.482015
     3  H    0.324472   0.046694   0.571510  -0.063150  -0.073629   0.002802
     4  H    0.369820  -0.131998  -0.063150   0.881377  -0.055918  -0.002929
     5  H    0.271094  -0.015282  -0.073629  -0.055918   0.772232  -0.018070
     6  H   -0.129826   0.482015   0.002802  -0.002929  -0.018070   0.582959
     7  H   -0.168166   0.498822   0.001019  -0.014332   0.006577  -0.031197
     8  H    0.130325   0.127913  -0.000158   0.001809   0.000305  -0.053203
              7          8
     1  C   -0.168166   0.130325
     2  C    0.498822   0.127913
     3  H    0.001019  -0.000158
     4  H   -0.014332   0.001809
     5  H    0.006577   0.000305
     6  H   -0.031197  -0.053203
     7  H    0.592311  -0.054839
     8  H   -0.054839   0.727908
 Mulliken atomic charges:
              1
     1  C   -0.410605
     2  C   -0.365039
     3  H    0.190441
     4  H    0.015320
     5  H    0.112691
     6  H    0.167448
     7  H    0.169804
     8  H    0.119941
 Sum of Mulliken atomic charges =  -0.00000
 Mulliken charges with hydrogens summed into heavy atoms:
              1
     1  C   -0.092153
     2  C    0.092153
 Sum of Mulliken charges with hydrogens summed into heavy atoms =  -0.00000
 Electronic spatial extent (au):  <R**2>=            176.7017
 Charge=             -0.0000 electrons
 Dipole moment (field-independent basis, Debye):
    X=             -1.2498    Y=             -0.7344    Z=             -0.1237  Tot=              1.4548
 Quadrupole moment (field-independent basis, Debye-Ang):
   XX=            -16.7149   YY=            -18.9245   ZZ=            -13.8992
   XY=             -0.1441   XZ=             -0.4218   YZ=             -1.9206
 Traceless Quadrupole moment (field-independent basis, Debye-Ang):
   XX=             -0.2020   YY=             -2.4116   ZZ=              2.6137
   XY=             -0.1441   XZ=             -0.4218   YZ=             -1.9206
 Octapole moment (field-independent basis, Debye-Ang**2):
  XXX=              3.3078  YYY=              5.5152  ZZZ=            -38.1204  XYY=              1.8386
  XXY=              1.1646  XXZ=            -13.3928  XZZ=             -2.9503  YZZ=             -5.0428
  YYZ=            -14.4942  XYZ=             -1.5834
 Hexadecapole moment (field-independent basis, Debye-Ang**3):
 XXXX=            -34.2502 YYYY=            -40.5497 ZZZZ=           -203.1966 XXXY=             -1.4982
 XXXZ=             -1.8774 YYYX=             -2.0582 YYYZ=             -2.5414 ZZZX=            -10.3697
 ZZZY=            -18.2723 XXYY=            -12.4288 XXZZ=            -42.2740 YYZZ=            -46.4686
 XXYZ=             -0.6018 YYXZ=              0.3371 ZZXY=             -3.0046
 N-N= 3.892991672721D+01 E-N=-2.601801826044D+02  KE= 7.815275441583D+01
 No NMR shielding tensors so no spin-rotation constants.
 Leave Link  601 at Wed May 26 19:10:05 2021, MaxMem=   13107200 cpu:       0.1
 (Enter /programs/64bit/g09/g09-gfortran/bin/l701.exe)
 Compute integral first derivatives.
 ... and contract with generalized density number  0.
 Leave Link  701 at Wed May 26 19:10:05 2021, MaxMem=   13107200 cpu:       0.1
 (Enter /programs/64bit/g09/g09-gfortran/bin/l702.exe)
 L702 exits ... SP integral derivatives will be done elsewhere.
 Leave Link  702 at Wed May 26 19:10:05 2021, MaxMem=   13107200 cpu:       0.0
 (Enter /programs/64bit/g09/g09-gfortran/bin/l703.exe)
 Compute integral first derivatives, UseDBF=F ICtDFT=           0.
 Integral derivatives from FoFDir, PRISM(SPDF).
 Calling FoFJK, ICntrl=      2127 FMM=F ISym2X=0 I1Cent= 0 IOpClX= 0 NMat=1 NMatS=1 NMatT=0.
 FoFCou: FMM=F IPFlag=           0 FMFlag=      100000 FMFlg1=         800
         NFxFlg=           0 DoJE=F BraDBF=F KetDBF=F FulRan=T
         Omega=  0.000000  0.000000  1.000000  0.000000  0.000000 ICntrl=    2127 IOpCl=  0
         NMat0=    1 NMatS0=    1 NMatT0=    0 NMatD0=    1 NMtDS0=    0 NMtDT0=    0
         I1Cent=           0 NGrid=           0.
 Symmetry not used in FoFCou.
 Leave Link  703 at Wed May 26 19:10:06 2021, MaxMem=   13107200 cpu:       1.4
 (Enter /programs/64bit/g09/g09-gfortran/bin/l716.exe)
 Dipole        =-4.91692368D-01-2.88922576D-01-4.86604621D-02
 -------------------------------------------------------------------
 Center     Atomic                   Forces (Hartrees/Bohr)
 Number     Number              X              Y              Z
 -------------------------------------------------------------------
      1        6          -0.093902027   -0.062556172   -0.096822069
      2        6          -0.000003537   -0.063857371    0.047578119
      3        1           0.064233606    0.032482179    0.060361861
      4        1           0.047730743    0.012512211    0.046297362
      5        1          -0.021399090    0.047593973    0.031773632
      6        1          -0.009393377   -0.014411622   -0.020442571
      7        1          -0.016022078   -0.000807013   -0.020556475
      8        1           0.028755760    0.049043815   -0.048189859
 -------------------------------------------------------------------
 Cartesian Forces:  Max     0.096822069 RMS     0.046784313
 -----------------------------------------------------------------------------------------------
                       Internal Coordinate Forces (Hartree/Bohr or radian)
  Cent   Atom   N1       Length/X         N2         Alpha/Y        N3         Beta/Z          J
 -----------------------------------------------------------------------------------------------
      1  C 
      2  C        1  -0.041611(     1)
      3  H        1  -0.058061(     2)      2  -0.155123(     8)
      4  H        1  -0.047563(     3)      2  -0.088084(     9)      3  -0.091099(    14)     0
      5  H        1   0.011822(     4)      2  -0.078064(    10)      3   0.093260(    15)     0
      6  H        2   0.002494(     5)      1  -0.045705(    11)      3  -0.000495(    16)     0
      7  H        2  -0.013432(     6)      1  -0.036132(    12)      6  -0.028431(    17)     0
      8  H        2  -0.046426(     7)      1  -0.175060(    13)      6  -0.000035(    18)     0
 -----------------------------------------------------------------------------------------------
 Internal  Forces:  Max     0.175060080 RMS     0.074389361
 Force constants in Cartesian coordinates: 
                1             2             3             4             5 
      1  0.117505D+01
      2 -0.754676D+00  0.423006D+01
      3  0.100576D+00  0.323809D-01  0.637570D+00
      4 -0.136391D+01  0.158227D+01  0.326930D-01  0.304085D+01
      5  0.895541D+00 -0.257840D+01  0.157916D-01 -0.187554D+01  0.236820D+01
      6 -0.123542D-01 -0.202967D-01 -0.258229D+00 -0.679517D-01 -0.103987D+00
      7 -0.926946D-01  0.791147D-04 -0.379241D-01  0.278093D-01 -0.261999D-02
      8  0.263542D+00 -0.201185D+01 -0.199580D-01 -0.515958D+00  0.110317D+01
      9  0.452548D-02  0.278961D-05 -0.222376D+00  0.980565D-03 -0.923818D-04
     10 -0.506137D-01 -0.596607D-01 -0.205180D-01 -0.837105D-02  0.853534D-02
     11 -0.378662D-01 -0.857377D-01 -0.190127D-01  0.833140D-02  0.178272D-02
     12 -0.185179D-01 -0.309304D-01 -0.551531D-01 -0.912642D-02 -0.164197D-01
     13 -0.301431D+00  0.929990D-02 -0.748268D-01  0.870914D-02 -0.379192D-03
     14 -0.242905D-01 -0.433042D-01 -0.920171D-02  0.213070D-01 -0.462788D-02
     15 -0.865834D-01 -0.145326D-02 -0.101811D+00 -0.245471D-01  0.720466D-03
     16  0.828872D-02 -0.285285D-04  0.000000D+00 -0.326375D+00  0.668633D-02
     17 -0.603327D-03 -0.167515D-01  0.000000D+00 -0.217706D-01 -0.570642D-01
     18  0.250455D-01 -0.813563D-04  0.000000D+00  0.950939D-01  0.201165D-01
     19  0.827640D-02  0.205501D-01  0.000000D+00 -0.116900D+00  0.725296D-01
     20  0.946369D-04  0.199821D-01  0.000000D+00  0.110425D+00 -0.250310D+00
     21 -0.123044D-01  0.210485D-01  0.000000D+00 -0.267168D-01  0.845963D-01
     22  0.617033D+00 -0.797837D+00  0.000000D+00 -0.126181D+01  0.895249D+00
     23 -0.341741D+00  0.485998D+00  0.000000D+00  0.690935D+00 -0.582748D+00
     24 -0.386938D-03 -0.670454D-03  0.000000D+00 -0.425430D-03 -0.725492D-03
                6             7             8             9            10 
      6  0.585659D+00
      7  0.000000D+00  0.721157D-01
      8  0.000000D+00  0.841454D-02  0.104805D+01
      9  0.000000D+00 -0.525110D-02  0.296700D-03  0.220854D+00
     10  0.000000D+00  0.297281D-02 -0.722871D-02  0.104823D-03  0.497665D-01
     11  0.000000D+00 -0.646269D-02 -0.417624D-02 -0.227877D-03  0.394072D-01
     12  0.000000D+00  0.120116D-01  0.205802D-01  0.423532D-03  0.158475D-01
     13  0.000000D+00 -0.102033D-01  0.584978D-03 -0.359771D-03 -0.787442D-03
     14  0.000000D+00  0.589025D-03  0.918567D-02  0.207692D-04  0.229980D-01
     15  0.000000D+00  0.311636D-01 -0.918841D-03  0.109884D-02  0.456564D-02
     16  0.785664D-01  0.000000D+00  0.137660D-05  0.000000D+00  0.000000D+00
     17  0.294578D-01  0.000000D+00  0.143790D-01  0.000000D+00  0.403460D-03
     18 -0.120455D+00  0.000000D+00  0.000000D+00  0.000000D+00  0.000000D+00
     19 -0.103338D-01  0.000000D+00 -0.121072D-01  0.000000D+00 -0.339715D-03
     20  0.749876D-01  0.000000D+00 -0.702682D-02  0.000000D+00 -0.197165D-03
     21 -0.113162D+00  0.000000D+00  0.000000D+00  0.000000D+00  0.000000D+00
     22  0.120732D-01  0.000000D+00  0.262752D+00  0.000000D+00  0.737252D-02
     23  0.198386D-01  0.000000D+00 -0.151733D+00  0.000000D+00 -0.425747D-02
     24 -0.938128D-01  0.000000D+00  0.000000D+00  0.000000D+00  0.000000D+00
               11            12            13            14            15 
     11  0.100550D+00
     12  0.222283D-01  0.536474D-01
     13  0.526520D-03 -0.214739D-03  0.304034D+00
     14 -0.146864D-01  0.454157D-02 -0.102169D-01  0.474497D-01
     15 -0.298773D-02  0.108221D-02  0.754013D-01  0.463937D-02  0.996298D-01
     16  0.000000D+00  0.000000D+00  0.000000D+00  0.000000D+00  0.000000D+00
     17 -0.225815D-03  0.000000D+00 -0.183970D-04 -0.595860D-03  0.000000D+00
     18  0.000000D+00  0.000000D+00  0.000000D+00  0.000000D+00  0.000000D+00
     19  0.190137D-03  0.000000D+00  0.154903D-04  0.501717D-03  0.000000D+00
     20  0.110352D-03  0.000000D+00  0.899034D-05  0.291188D-03  0.000000D+00
     21  0.000000D+00  0.000000D+00  0.000000D+00  0.000000D+00  0.000000D+00
     22 -0.412637D-02  0.000000D+00 -0.336173D-03 -0.108883D-01  0.000000D+00
     23  0.238289D-02  0.000000D+00  0.194132D-03  0.628775D-02  0.000000D+00
     24  0.000000D+00  0.000000D+00  0.000000D+00  0.000000D+00  0.000000D+00
               16            17            18            19            20 
     16  0.330949D+00
     17 -0.480647D-02  0.424891D-01
     18 -0.812642D-01 -0.144321D-01  0.112299D+00
     19 -0.467234D-02  0.276338D-01 -0.141260D-01  0.109824D+00
     20 -0.172862D-02  0.103582D-01 -0.522622D-02 -0.115312D+00  0.231150D+00
     21  0.256896D-02 -0.148420D-01  0.776670D-02  0.246776D-01 -0.697794D-01
     22 -0.819080D-02 -0.838396D-03 -0.247492D-01  0.379620D-02  0.670937D-02
     23 -0.124017D-03  0.741090D-02 -0.376877D-03  0.601424D-02 -0.455500D-02
     24  0.128808D-03 -0.183810D-03  0.389262D-03 -0.217769D-03  0.180577D-04
               21            22            23            24 
     21  0.105018D+00
     22  0.117747D-01  0.642135D+00
     23 -0.210234D-01 -0.351021D+00  0.236957D+00
     24  0.377447D-03  0.901330D-03  0.156170D-02  0.930460D-01
 Force constants in internal coordinates: 
                1             2             3             4             5 
      1  0.258229D+00
      2  0.000000D+00  0.221039D+00
      3  0.000000D+00  0.000000D+00  0.131487D+00
      4  0.000000D+00  0.000000D+00  0.000000D+00  0.329080D+00
      5  0.000000D+00  0.000000D+00  0.000000D+00  0.000000D+00  0.357844D+00
      6  0.000000D+00  0.000000D+00  0.000000D+00  0.000000D+00  0.000000D+00
      7  0.000000D+00  0.000000D+00  0.000000D+00  0.000000D+00  0.000000D+00
      8  0.000000D+00  0.000000D+00  0.000000D+00  0.000000D+00  0.000000D+00
      9  0.000000D+00  0.000000D+00  0.000000D+00  0.000000D+00  0.000000D+00
     10  0.000000D+00  0.000000D+00  0.000000D+00  0.000000D+00  0.000000D+00
     11  0.000000D+00  0.000000D+00  0.000000D+00  0.000000D+00  0.000000D+00
     12  0.000000D+00  0.000000D+00  0.000000D+00  0.000000D+00  0.000000D+00
     13  0.000000D+00  0.000000D+00  0.000000D+00  0.000000D+00  0.000000D+00
     14  0.000000D+00  0.000000D+00  0.000000D+00  0.000000D+00  0.000000D+00
     15  0.000000D+00  0.000000D+00  0.000000D+00  0.000000D+00  0.000000D+00
     16  0.000000D+00  0.000000D+00  0.000000D+00  0.000000D+00  0.000000D+00
     17  0.000000D+00  0.000000D+00  0.000000D+00  0.000000D+00  0.000000D+00
     18  0.000000D+00  0.000000D+00  0.000000D+00  0.000000D+00  0.000000D+00
                6             7             8             9            10 
      6  0.324780D+00
      7  0.000000D+00  0.931013D-01
      8  0.000000D+00  0.000000D+00  0.393519D+00
      9  0.000000D+00  0.000000D+00  0.808179D-01  0.325613D+00
     10  0.000000D+00  0.000000D+00  0.160583D+00  0.684986D-02  0.328142D+00
     11  0.000000D+00  0.000000D+00  0.000000D+00  0.000000D+00  0.000000D+00
     12  0.000000D+00  0.000000D+00  0.000000D+00  0.000000D+00  0.000000D+00
     13  0.000000D+00  0.000000D+00  0.000000D+00  0.000000D+00  0.000000D+00
     14  0.000000D+00  0.000000D+00  0.344985D-01  0.219043D-01  0.307196D-01
     15  0.000000D+00  0.000000D+00 -0.127428D-02 -0.259059D-01 -0.304818D-01
     16  0.000000D+00  0.000000D+00  0.000000D+00  0.000000D+00  0.000000D+00
     17  0.000000D+00  0.000000D+00  0.000000D+00  0.000000D+00  0.000000D+00
     18  0.000000D+00  0.000000D+00  0.000000D+00  0.000000D+00  0.000000D+00
               11            12            13            14            15 
     11  0.356887D+00
     12  0.369894D-01  0.356880D+00
     13  0.821711D-01  0.818445D-01  0.308387D+00
     14  0.000000D+00  0.000000D+00  0.000000D+00  0.185881D+00
     15  0.000000D+00  0.000000D+00  0.000000D+00 -0.138604D+00  0.186008D+00
     16  0.846187D-03 -0.837965D-03 -0.637166D-04  0.690000D-02  0.690000D-02
     17 -0.637014D-01 -0.603320D-01 -0.350365D-01  0.230000D-02  0.230000D-02
     18  0.420698D-02 -0.421284D-02  0.403149D-05  0.230000D-02  0.230000D-02
               16            17            18 
     16  0.988856D-01
     17  0.466624D-01  0.160024D+00
     18  0.556611D-02 -0.788693D-03  0.714599D-02
 Leave Link  716 at Wed May 26 19:10:06 2021, MaxMem=   13107200 cpu:       0.0
 (Enter /programs/64bit/g09/g09-gfortran/bin/l103.exe)

 GradGradGradGradGradGradGradGradGradGradGradGradGradGradGradGradGradGrad
 Berny optimization.
 Search for a local minimum.
 Step number   1 out of a maximum of    2
 All quantities printed in internal units (Hartrees-Bohrs-Radians)
 Second derivative matrix not updated -- first step.
 The second derivative matrix:
                          d1        a1        t1        d2        a2
           d1           0.25823
           a1          -0.00000   0.39352
           t1          -0.00000   0.03450   0.18588
           d2           0.00000  -0.00000  -0.00000   0.22104
           a2          -0.00000   0.08082   0.02190  -0.00000   0.32561
           t2           0.00000  -0.00127  -0.13860   0.00000  -0.02591
           d3          -0.00000   0.00000   0.00000  -0.00000   0.00000
           d4          -0.00000  -0.00000   0.00000   0.00000   0.00000
           a3          -0.00000   0.16058   0.03072  -0.00000   0.00685
           d5          -0.00000   0.00000   0.00000   0.00000   0.00000
           a4          -0.00000   0.00000  -0.00000   0.00000  -0.00000
           t3           0.00000  -0.00000   0.00690   0.00000  -0.00000
           d6           0.00000   0.00000   0.00000   0.00000   0.00000
           a5          -0.00000   0.00000  -0.00000   0.00000   0.00000
           t4           0.00000  -0.00000   0.00230   0.00000   0.00000
           d7          -0.00000   0.00000  -0.00000  -0.00000   0.00000
           a6          -0.00000   0.00000   0.00000  -0.00000  -0.00000
           t5          -0.00000  -0.00000   0.00230   0.00000  -0.00000
                          t2        d3        d4        a3        d5
           t2           0.18601
           d3           0.00000   0.13149
           d4          -0.00000  -0.00000   0.32908
           a3          -0.03048  -0.00000   0.00000   0.32814
           d5           0.00000   0.00000   0.00000  -0.00000   0.35784
           a4          -0.00000   0.00000  -0.00000   0.00000   0.00000
           t3           0.00690   0.00000   0.00000  -0.00000  -0.00000
           d6           0.00000  -0.00000  -0.00000   0.00000   0.00000
           a5          -0.00000  -0.00000   0.00000  -0.00000  -0.00000
           t4           0.00230  -0.00000   0.00000  -0.00000   0.00000
           d7          -0.00000  -0.00000  -0.00000   0.00000  -0.00000
           a6           0.00000   0.00000   0.00000  -0.00000  -0.00000
           t5           0.00230   0.00000   0.00000  -0.00000  -0.00000
                          a4        t3        d6        a5        t4
           a4           0.35689
           t3           0.00085   0.09889
           d6           0.00000  -0.00000   0.32478
           a5           0.03699  -0.00084  -0.00000   0.35688
           t4          -0.06370   0.04666  -0.00000  -0.06033   0.16002
           d7           0.00000  -0.00000   0.00000   0.00000  -0.00000
           a6           0.08217  -0.00006   0.00000   0.08184  -0.03504
           t5           0.00421   0.00557  -0.00000  -0.00421  -0.00079
                          d7        a6        t5
           d7           0.09310
           a6           0.00000   0.30839
           t5           0.00000   0.00000   0.00715
     Eigenvalues --- 1000.000001000.000001000.000001000.000001000.00000
     Eigenvalues --- 1000.000001000.000001000.000001000.000001000.00000
     Eigenvalues --- 1000.000001000.000001000.000001000.000001000.00000
     Eigenvalues --- 1000.000001000.000001000.00000
 Angle between quadratic step and forces=  90.00 degrees.
 Linear search not attempted -- first point.
 Variable       Old X    -DE/DX   Delta X   Delta X   Delta X     New X
                                 (Linear)    (Quad)   (Total)
    d1        2.97161  -0.04161   0.00000   0.00000   0.00000   2.97161
    a1        3.10635  -0.15512   0.00000   0.00000   0.00000   3.10635
    t1        2.08105  -0.09110   0.00000   0.00000   0.00000   2.08105
    d2        2.33898  -0.05806   0.00000   0.00000   0.00000   2.33898
    a2        1.90625  -0.08808   0.00000   0.00000   0.00000   1.90625
    t2       -3.11073   0.09326   0.00000   0.00000   0.00000  -3.11073
    d3        2.71459  -0.04756   0.00000   0.00000   0.00000   2.71459
    d4        2.09213   0.01182   0.00000   0.00000   0.00000   2.09213
    a3        1.88759  -0.07806   0.00000   0.00000   0.00000   1.88759
    d5        2.04420   0.00249   0.00000   0.00000   0.00000   2.04420
    a4        1.89040  -0.04570   0.00000   0.00000   0.00000   1.89040
    t3        3.14150  -0.00050   0.00000   0.00000   0.00000   3.14150
    d6        2.09978  -0.01343   0.00000   0.00000   0.00000   2.09978
    a5        1.89044  -0.03613   0.00000   0.00000   0.00000   1.89044
    t4        2.09676  -0.02843   0.00000   0.00000   0.00000   2.09676
    d7        3.00272  -0.04643   0.00000   0.00000   0.00000   3.00272
    a6        3.11096  -0.17506   0.00000   0.00000   0.00000   3.11096
    t5       -2.09440  -0.00003   0.00000   0.00000   0.00000  -2.09440
         Item               Value     Threshold  Converged?
 Maximum Force            0.000000     0.000450     YES
 RMS     Force            0.000000     0.000300     YES
 Maximum Displacement     0.000000     0.001800     YES
 RMS     Displacement     0.000000     0.001200     YES
 Predicted change in Energy=-0.000000D+00
 Optimization completed.
    -- Stationary point found.
                       ----------------------------
                       !   Optimized Parameters   !
                       ! (Angstroms and Degrees)  !
 ----------------------                            ----------------------
 !      Name          Value   Derivative information (Atomic Units)     !
 ------------------------------------------------------------------------
 !       d1          1.5725   -DE/DX =   -0.0416                        !
 !       a1        177.9806   -DE/DX =   -0.1551                        !
 !       t1        119.2356   -DE/DX =   -0.0911                        !
 !       d2          1.2377   -DE/DX =   -0.0581                        !
 !       a2        109.2199   -DE/DX =   -0.0881                        !
 !       t2       -178.2316   -DE/DX =    0.0933                        !
 !       d3          1.4365   -DE/DX =   -0.0476                        !
 !       d4          1.1071   -DE/DX =    0.0118                        !
 !       a3        108.151    -DE/DX =   -0.0781                        !
 !       d5          1.0817   -DE/DX =    0.0025                        !
 !       a4        108.3119   -DE/DX =   -0.0457                        !
 !       t3        179.9945   -DE/DX =   -0.0005                        !
 !       d6          1.1112   -DE/DX =   -0.0134                        !
 !       a5        108.3139   -DE/DX =   -0.0361                        !
 !       t4        120.1356   -DE/DX =   -0.0284                        !
 !       d7          1.589    -DE/DX =   -0.0464                        !
 !       a6        178.2448   -DE/DX =   -0.1751                        !
 !       t5       -120.0      -DE/DX =    0.0                           !
 ------------------------------------------------------------------------
 GradGradGradGradGradGradGradGradGradGradGradGradGradGradGradGradGradGrad

 Leave Link  103 at Wed May 26 19:10:06 2021, MaxMem=   13107200 cpu:       0.0
 (Enter /programs/64bit/g09/g09-gfortran/bin/l9999.exe)
 1\1\GINC-MOLMOD\Force\RB3LYP\6-31+G(d,p)\C2H6\OSPITE\26-May-2021\1\\#p
  b3lyp/6-31+g(d,p) force nosym\\c2h6 molecule\\0,1\C\C,1,d1\H,1,d2,2,a
 1\H,1,d3,2,a2,3,t1,0\H,1,d4,2,a3,3,t2,0\H,2,d5,1,a4,3,t3,0\H,2,d6,1,a5
 ,6,t4,0\H,2,d7,1,a6,6,t5,0\\d1=1.57250611\a1=177.98056625\t1=119.23557
 715\d2=1.23773429\a2=109.2198522\t2=-178.23157342\d3=1.43650106\d4=1.1
 071092\a3=108.15104767\d5=1.08174408\a4=108.311885\t3=179.99451472\d6=
 1.1111557\a5=108.31394716\t4=120.13563812\d7=1.58897289\a6=178.2448237
 7\t5=-119.99999826\\Version=EM64L-G09RevA.02\HF=-79.4979126\RMSD=2.266
 e-09\RMSF=4.678e-02\Dipole=-0.4916924,-0.2889226,-0.0486605\Quadrupole
 =-0.1502179,-1.7929733,1.9431911,-0.1071195,-0.3136131,-1.4279298\PG=C
 01 [X(C2H6)]\\@


 EVERYBODY NEEDS BEAUTY AS WELL AS BREAD, PLACES TO PLAY IN AND PRAY IN,
 WHERE NATURE MAY HEAL AND CHEER AND GIVE STRENGTH TO BODY AND SOUL ALIKE.

                                    -- JOHN MUIR
 Job cpu time:  0 days  0 hours  0 minutes 10.3 seconds.
 File lengths (MBytes):  RWF=      5 Int=      0 D2E=      0 Chk=      1 Scr=      1
 Normal termination of Gaussian 09 at Wed May 26 19:10:06 2021.
