 Entering Gaussian System, Link 0=g09
 Input=c2h6_040.com
 Output=c2h6_040.log
 Initial command:
 /programs/64bit/g09/g09-gfortran/bin/l1.exe /data/scratch/Gau-6863.inp -scrdir=/data/scratch/
 Entering Link 1 = /programs/64bit/g09/g09-gfortran/bin/l1.exe PID=      6864.
  
 Copyright (c) 1988,1990,1992,1993,1995,1998,2003,2009, Gaussian, Inc.
                  All Rights Reserved.
  
 This is part of the Gaussian(R) 09 program.  It is based on
 the Gaussian(R) 03 system (copyright 2003, Gaussian, Inc.),
 the Gaussian(R) 98 system (copyright 1998, Gaussian, Inc.),
 the Gaussian(R) 94 system (copyright 1995, Gaussian, Inc.),
 the Gaussian 92(TM) system (copyright 1992, Gaussian, Inc.),
 the Gaussian 90(TM) system (copyright 1990, Gaussian, Inc.),
 the Gaussian 88(TM) system (copyright 1988, Gaussian, Inc.),
 the Gaussian 86(TM) system (copyright 1986, Carnegie Mellon
 University), and the Gaussian 82(TM) system (copyright 1983,
 Carnegie Mellon University). Gaussian is a federally registered
 trademark of Gaussian, Inc.
  
 This software contains proprietary and confidential information,
 including trade secrets, belonging to Gaussian, Inc.
  
 This software is provided under written license and may be
 used, copied, transmitted, or stored only in accord with that
 written license.
  
 The following legend is applicable only to US Government
 contracts under FAR:
  
                    RESTRICTED RIGHTS LEGEND
  
 Use, reproduction and disclosure by the US Government is
 subject to restrictions as set forth in subparagraphs (a)
 and (c) of the Commercial Computer Software - Restricted
 Rights clause in FAR 52.227-19.
  
 Gaussian, Inc.
 340 Quinnipiac St., Bldg. 40, Wallingford CT 06492
  
  
 ---------------------------------------------------------------
 Warning -- This program may not be used in any manner that
 competes with the business of Gaussian, Inc. or will provide
 assistance to any competitor of Gaussian, Inc.  The licensee
 of this program is prohibited from giving any competitor of
 Gaussian, Inc. access to this program.  By using this program,
 the user acknowledges that Gaussian, Inc. is engaged in the
 business of creating and licensing software in the field of
 computational chemistry and represents and warrants to the
 licensee that it is not a competitor of Gaussian, Inc. and that
 it will not use this program in any manner prohibited above.
 ---------------------------------------------------------------
  

 Cite this work as:
 Gaussian 09, Revision A.02,
 M. J. Frisch, G. W. Trucks, H. B. Schlegel, G. E. Scuseria, 
 M. A. Robb, J. R. Cheeseman, G. Scalmani, V. Barone, B. Mennucci, 
 G. A. Petersson, H. Nakatsuji, M. Caricato, X. Li, H. P. Hratchian, 
 A. F. Izmaylov, J. Bloino, G. Zheng, J. L. Sonnenberg, M. Hada, 
 M. Ehara, K. Toyota, R. Fukuda, J. Hasegawa, M. Ishida, T. Nakajima, 
 Y. Honda, O. Kitao, H. Nakai, T. Vreven, J. A. Montgomery, Jr., 
 J. E. Peralta, F. Ogliaro, M. Bearpark, J. J. Heyd, E. Brothers, 
 K. N. Kudin, V. N. Staroverov, R. Kobayashi, J. Normand, 
 K. Raghavachari, A. Rendell, J. C. Burant, S. S. Iyengar, J. Tomasi, 
 M. Cossi, N. Rega, J. M. Millam, M. Klene, J. E. Knox, J. B. Cross, 
 V. Bakken, C. Adamo, J. Jaramillo, R. Gomperts, R. E. Stratmann, 
 O. Yazyev, A. J. Austin, R. Cammi, C. Pomelli, J. W. Ochterski, 
 R. L. Martin, K. Morokuma, V. G. Zakrzewski, G. A. Voth, 
 P. Salvador, J. J. Dannenberg, S. Dapprich, A. D. Daniels, 
 O. Farkas, J. B. Foresman, J. V. Ortiz, J. Cioslowski, 
 and D. J. Fox, Gaussian, Inc., Wallingford CT, 2009.
 
 ******************************************
 Gaussian 09:  EM64L-G09RevA.02 11-Jun-2009
                26-May-2021 
 ******************************************
 %chk=c2h6_040.chk
 %mem=100MB
 --------------------------------
 #p b3lyp/6-31+g(d,p) force nosym
 --------------------------------
 1/10=7,30=1,38=1/1,3;
 2/12=2,15=1,17=6,18=5,40=1/2;
 3/5=1,6=6,7=111,11=2,16=1,25=1,30=1,71=1,74=-5/1,2,3;
 4//1;
 5/5=2,38=5/2;
 6/7=2,8=2,9=2,10=2,28=1/1;
 7/29=1,30=1/1,2,3,16;
 1/10=7,30=1/3;
 99//99;
 Leave Link    1 at Wed May 26 19:14:27 2021, MaxMem=   13107200 cpu:       0.0
 (Enter /programs/64bit/g09/g09-gfortran/bin/l101.exe)
 -------------
 c2h6 molecule
 -------------
 Symbolic Z-matrix:
 Charge =  0 Multiplicity = 1
 C1
 C2                   1    d1
 H3                   1    d2       2    a1
 H4                   1    d3       2    a2       3    t1       0
 H5                   1    d4       2    a3       3    t2       0
 H6                   2    d5       1    a4       3    t3       0
 H7                   2    d6       1    a5       6    t4       0
 H8                   2    d7       1    a6       6    t5       0
       Variables:
       Constants:
  d1                    1.5391                   
  a1                  131.66516                  
  t1                  104.01678                  
  d2                    1.09067                  
  a2                   91.62831                  
  t2                 -150.19009                  
  d3                    1.0906                   
  d4                    1.09351                  
  a3                  117.54164                  
  d5                    1.09777                  
  a4                   99.42998                  
  t3                  179.30625                  
  d6                    1.09183                  
  a5                  105.68339                  
  t4                  103.4615                   
  d7                    1.0898                   
  a6                  117.78997                  
  t5                 -119.96282                  
 
 NAtoms=      8 NQM=      8 NQMF=      0 NMic=      0 NMicF=      0 NTot=      8.
                    Isotopes and Nuclear Properties:
 (Nuclear quadrupole moments (NQMom) in fm**2, nuclear magnetic moments (NMagM)
  in nuclear magnetons)

  Atom         1           2           3           4           5           6           7           8
 IAtWgt=          12          12           1           1           1           1           1           1
 AtmWgt=  12.0000000  12.0000000   1.0078250   1.0078250   1.0078250   1.0078250   1.0078250   1.0078250
 NucSpn=           0           0           1           1           1           1           1           1
 AtZEff=   0.0000000   0.0000000   0.0000000   0.0000000   0.0000000   0.0000000   0.0000000   0.0000000
 NQMom=    0.0000000   0.0000000   0.0000000   0.0000000   0.0000000   0.0000000   0.0000000   0.0000000
 NMagM=    0.0000000   0.0000000   2.7928460   2.7928460   2.7928460   2.7928460   2.7928460   2.7928460
 Leave Link  101 at Wed May 26 19:14:27 2021, MaxMem=   13107200 cpu:       0.0
 (Enter /programs/64bit/g09/g09-gfortran/bin/l103.exe)

 GradGradGradGradGradGradGradGradGradGradGradGradGradGradGradGradGradGrad
 Berny optimization.
 Initialization pass.
                       ----------------------------
                       !    Initial Parameters    !
                       ! (Angstroms and Degrees)  !
 ----------------------                            ----------------------
 !      Name          Value   Derivative information (Atomic Units)     !
 ------------------------------------------------------------------------
 !       d1          1.5391   Frozen                                    !
 !       a1        131.6652   Frozen                                    !
 !       t1        104.0168   Frozen                                    !
 !       d2          1.0907   Frozen                                    !
 !       a2         91.6283   Frozen                                    !
 !       t2       -150.1901   Frozen                                    !
 !       d3          1.0906   Frozen                                    !
 !       d4          1.0935   Frozen                                    !
 !       a3        117.5416   Frozen                                    !
 !       d5          1.0978   Frozen                                    !
 !       a4         99.43     Frozen                                    !
 !       t3        179.3063   Frozen                                    !
 !       d6          1.0918   Frozen                                    !
 !       a5        105.6834   Frozen                                    !
 !       t4        103.4615   Frozen                                    !
 !       d7          1.0898   Frozen                                    !
 !       a6        117.79     Frozen                                    !
 !       t5       -119.9628   Frozen                                    !
 ------------------------------------------------------------------------
 Trust Radius=3.00D-01 FncErr=1.00D-07 GrdErr=1.00D-07
 Number of steps in this run=   2 maximum allowed number of steps=   2.
 GradGradGradGradGradGradGradGradGradGradGradGradGradGradGradGradGradGrad

 Leave Link  103 at Wed May 26 19:14:27 2021, MaxMem=   13107200 cpu:       0.0
 (Enter /programs/64bit/g09/g09-gfortran/bin/l202.exe)
                          Input orientation:                          
 ---------------------------------------------------------------------
 Center     Atomic      Atomic             Coordinates (Angstroms)
 Number     Number       Type             X           Y           Z
 ---------------------------------------------------------------------
      1          6           0        0.000000    0.000000    0.000000
      2          6           0        0.000000    0.000000    1.539104
      3          1           0        0.814778    0.000000   -0.725053
      4          1           0       -0.264042   -1.057697   -0.030990
      5          1           0       -0.841293    0.482006   -0.505632
      6          1           0       -1.082851    0.013112    1.718964
      7          1           0        0.232310   -1.025187    1.834248
      8          1           0        0.491587    0.829359    2.047203
 ---------------------------------------------------------------------
                    Distance matrix (angstroms):
                    1          2          3          4          5
     1  C    0.000000
     2  C    1.539104   0.000000
     3  H    1.090672   2.406298   0.000000
     4  H    1.090597   1.911449   1.662618   0.000000
     5  H    1.093512   2.262974   1.738691   1.711487   0.000000
     6  H    2.031644   1.097765   3.094251   2.208941   2.286273
     7  H    2.114106   1.091827   2.817853   1.930424   2.983169
     8  H    2.262860   1.089798   2.911647   2.907033   2.900722
                    6          7          8
     6  H    0.000000
     7  H    1.679584   0.000000
     8  H    1.803568   1.884653   0.000000
 Symmetry turned off by external request.
 Stoichiometry    C2H6
 Framework group  C1[X(C2H6)]
 Deg. of freedom    18
 Full point group                 C1      NOp   1
 Rotational constants (GHZ):     84.0868855     19.9268502     19.7886656
 Leave Link  202 at Wed May 26 19:14:27 2021, MaxMem=   13107200 cpu:       0.0
 (Enter /programs/64bit/g09/g09-gfortran/bin/l301.exe)
 Standard basis: 6-31+G(d,p) (6D, 7F)
 Ernie: Thresh=  0.10000D-02 Tol=  0.10000D-05 Strict=F.
 Integral buffers will be    131072 words long.
 Raffenetti 2 integral format.
 Two-electron integral symmetry is turned off.
    68 basis functions,   106 primitive gaussians,    68 cartesian basis functions
     9 alpha electrons        9 beta electrons
       nuclear repulsion energy        42.3173193171 Hartrees.
 IExCor=  402 DFT=T Ex+Corr=B3LYP ExCW=0 ScaHFX=  0.200000
 ScaDFX=  0.800000  0.720000  1.000000  0.810000 ScalE2=  1.000000  1.000000
 IRadAn=      0 IRanWt=     -1 IRanGd=            0 ICorTp=0
 NAtoms=    8 NActive=    8 NUniq=    8 SFac= 7.50D-01 NAtFMM=   80 NAOKFM=F Big=F
 Leave Link  301 at Wed May 26 19:14:27 2021, MaxMem=   13107200 cpu:       0.0
 (Enter /programs/64bit/g09/g09-gfortran/bin/l302.exe)
 NPDir=0 NMtPBC=     1 NCelOv=     1 NCel=       1 NClECP=     1 NCelD=      1
         NCelK=      1 NCelE2=     1 NClLst=     1 CellRange=     0.0.
 One-electron integrals computed using PRISM.
 NBasis=    68 RedAO= T  NBF=    68
 NBsUse=    68 1.00D-06 NBFU=    68
 Precomputing XC quadrature grid using
 IXCGrd= 2 IRadAn=           0 IRanWt=          -1 IRanGd=           0 AccXCQ= 1.00D-10.
 NRdTot=     510 NPtTot=       65100 NUsed=       68787 NTot=       68819
 NSgBfM=    68    68    68    68    68 NAtAll=     8     8.
 Leave Link  302 at Wed May 26 19:14:27 2021, MaxMem=   13107200 cpu:       0.1
 (Enter /programs/64bit/g09/g09-gfortran/bin/l303.exe)
 DipDrv:  MaxL=1.
 Leave Link  303 at Wed May 26 19:14:27 2021, MaxMem=   13107200 cpu:       0.0
 (Enter /programs/64bit/g09/g09-gfortran/bin/l401.exe)
 Harris functional with IExCor=  402 diagonalized for initial guess.
 ExpMin= 4.38D-02 ExpMax= 3.05D+03 ExpMxC= 4.57D+02 IAcc=2 IRadAn=         0 AccDes= 0.00D+00
 HarFok:  IExCor=  402 AccDes= 0.00D+00 IRadAn=         0 IDoV= 1
 ScaDFX=  1.000000  1.000000  1.000000  1.000000
 FoFCou: FMM=F IPFlag=           0 FMFlag=      100000 FMFlg1=           0
         NFxFlg=           0 DoJE=T BraDBF=F KetDBF=T FulRan=T
         Omega=  0.000000  0.000000  1.000000  0.000000  0.000000 ICntrl=     500 IOpCl=  0
         NMat0=    1 NMatS0=    1 NMatT0=    0 NMatD0=    1 NMtDS0=    0 NMtDT0=    0
         I1Cent=           4 NGrid=           0.
 Symmetry not used in FoFCou.
 Harris En= -79.8673873472872    
 Leave Link  401 at Wed May 26 19:14:28 2021, MaxMem=   13107200 cpu:       0.8
 (Enter /programs/64bit/g09/g09-gfortran/bin/l502.exe)
 Closed shell SCF:
 Requested convergence on RMS density matrix=1.00D-08 within 128 cycles.
 Requested convergence on MAX density matrix=1.00D-06.
 Requested convergence on             energy=1.00D-06.
 No special actions if energy rises.
 Using DIIS extrapolation, IDIIS=  1040.
 Two-electron integral symmetry not used.
        68702 words used for storage of precomputed grid.
 Keep R1 ints in memory in canonical form, NReq=3743087.
 IEnd=      101552 IEndB=      101552 NGot=    13107200 MDV=    10273922
 LenX=    10273922 LenY=    10268857
 Symmetry not used in FoFDir.
 MinBra= 0 MaxBra= 2 Meth= 1.
 IRaf=       0 NMat=   1 IRICut=       1 DoRegI=T DoRafI=F ISym2E= 0 JSym2E=0.

 Cycle   1  Pass 1  IDiag  1:
 E= -79.6782376358547    
 DIIS: error= 3.95D-02 at cycle   1 NSaved=   1.
 NSaved= 1 IEnMin= 1 EnMin= -79.6782376358547     IErMin= 1 ErrMin= 3.95D-02
 ErrMax= 3.95D-02 EMaxC= 1.00D-01 BMatC= 1.16D-01 BMatP= 1.16D-01
 IDIUse=3 WtCom= 6.05D-01 WtEn= 3.95D-01
 Coeff-Com:  0.100D+01
 Coeff-En:   0.100D+01
 Coeff:      0.100D+01
 Gap=     0.251 Goal=   None    Shift=    0.000
 GapD=    0.251 DampG=1.000 DampE=0.500 DampFc=0.5000 IDamp=-1.
 Damping current iteration by 5.00D-01
 RMSDP=1.04D-02 MaxDP=1.44D-01              OVMax= 2.09D-01

 Cycle   2  Pass 1  IDiag  1:
 E= -79.7320735225643     Delta-E=       -0.053835886710 Rises=F Damp=T
 DIIS: error= 1.12D-02 at cycle   2 NSaved=   2.
 NSaved= 2 IEnMin= 2 EnMin= -79.7320735225643     IErMin= 2 ErrMin= 1.12D-02
 ErrMax= 1.12D-02 EMaxC= 1.00D-01 BMatC= 4.90D-03 BMatP= 1.16D-01
 IDIUse=3 WtCom= 8.88D-01 WtEn= 1.12D-01
 Coeff-Com:  0.113D+00 0.887D+00
 Coeff-En:   0.195D+00 0.805D+00
 Coeff:      0.123D+00 0.877D+00
 Gap=     0.353 Goal=   None    Shift=    0.000
 RMSDP=1.79D-03 MaxDP=1.98D-02 DE=-5.38D-02 OVMax= 1.18D-01

 Cycle   3  Pass 1  IDiag  1:
 E= -79.8094575565145     Delta-E=       -0.077384033950 Rises=F Damp=F
 DIIS: error= 1.64D-03 at cycle   3 NSaved=   3.
 NSaved= 3 IEnMin= 3 EnMin= -79.8094575565145     IErMin= 3 ErrMin= 1.64D-03
 ErrMax= 1.64D-03 EMaxC= 1.00D-01 BMatC= 2.21D-04 BMatP= 4.90D-03
 IDIUse=3 WtCom= 9.84D-01 WtEn= 1.64D-02
 Coeff-Com:  0.908D-02 0.137D+00 0.854D+00
 Coeff-En:   0.000D+00 0.000D+00 0.100D+01
 Coeff:      0.893D-02 0.135D+00 0.856D+00
 Gap=     0.339 Goal=   None    Shift=    0.000
 RMSDP=3.14D-04 MaxDP=2.66D-03 DE=-7.74D-02 OVMax= 4.84D-03

 Cycle   4  Pass 1  IDiag  1:
 E= -79.8096541829147     Delta-E=       -0.000196626400 Rises=F Damp=F
 DIIS: error= 4.05D-04 at cycle   4 NSaved=   4.
 NSaved= 4 IEnMin= 4 EnMin= -79.8096541829147     IErMin= 4 ErrMin= 4.05D-04
 ErrMax= 4.05D-04 EMaxC= 1.00D-01 BMatC= 1.50D-05 BMatP= 2.21D-04
 IDIUse=3 WtCom= 9.96D-01 WtEn= 4.05D-03
 Coeff-Com: -0.513D-03-0.215D-02 0.194D+00 0.808D+00
 Coeff-En:   0.000D+00 0.000D+00 0.000D+00 0.100D+01
 Coeff:     -0.511D-03-0.214D-02 0.193D+00 0.809D+00
 Gap=     0.339 Goal=   None    Shift=    0.000
 RMSDP=7.20D-05 MaxDP=6.88D-04 DE=-1.97D-04 OVMax= 1.46D-03

 Cycle   5  Pass 1  IDiag  1:
 E= -79.8096670540489     Delta-E=       -0.000012871134 Rises=F Damp=F
 DIIS: error= 1.72D-04 at cycle   5 NSaved=   5.
 NSaved= 5 IEnMin= 5 EnMin= -79.8096670540489     IErMin= 5 ErrMin= 1.72D-04
 ErrMax= 1.72D-04 EMaxC= 1.00D-01 BMatC= 1.97D-06 BMatP= 1.50D-05
 IDIUse=3 WtCom= 9.98D-01 WtEn= 1.72D-03
 Coeff-Com: -0.164D-03-0.313D-02 0.867D-01 0.412D+00 0.504D+00
 Coeff-En:   0.000D+00 0.000D+00 0.000D+00 0.000D+00 0.100D+01
 Coeff:     -0.163D-03-0.312D-02 0.866D-01 0.411D+00 0.505D+00
 Gap=     0.339 Goal=   None    Shift=    0.000
 RMSDP=1.88D-05 MaxDP=3.45D-04 DE=-1.29D-05 OVMax= 4.36D-04

 Cycle   6  Pass 1  IDiag  1:
 E= -79.8096689583319     Delta-E=       -0.000001904283 Rises=F Damp=F
 DIIS: error= 2.13D-05 at cycle   6 NSaved=   6.
 NSaved= 6 IEnMin= 6 EnMin= -79.8096689583319     IErMin= 6 ErrMin= 2.13D-05
 ErrMax= 2.13D-05 EMaxC= 1.00D-01 BMatC= 3.02D-08 BMatP= 1.97D-06
 IDIUse=1 WtCom= 1.00D+00 WtEn= 0.00D+00
 Coeff-Com:  0.186D-03-0.625D-03 0.709D-02 0.398D-01 0.123D+00 0.831D+00
 Coeff:      0.186D-03-0.625D-03 0.709D-02 0.398D-01 0.123D+00 0.831D+00
 Gap=     0.339 Goal=   None    Shift=    0.000
 RMSDP=3.00D-06 MaxDP=4.68D-05 DE=-1.90D-06 OVMax= 6.50D-05

 Cycle   7  Pass 1  IDiag  1:
 E= -79.8096689892330     Delta-E=       -0.000000030901 Rises=F Damp=F
 DIIS: error= 4.26D-06 at cycle   7 NSaved=   7.
 NSaved= 7 IEnMin= 7 EnMin= -79.8096689892330     IErMin= 7 ErrMin= 4.26D-06
 ErrMax= 4.26D-06 EMaxC= 1.00D-01 BMatC= 1.27D-09 BMatP= 3.02D-08
 IDIUse=1 WtCom= 1.00D+00 WtEn= 0.00D+00
 Coeff-Com:  0.796D-04-0.103D-03-0.140D-02-0.446D-02 0.179D-01 0.265D+00
 Coeff-Com:  0.723D+00
 Coeff:      0.796D-04-0.103D-03-0.140D-02-0.446D-02 0.179D-01 0.265D+00
 Coeff:      0.723D+00
 Gap=     0.339 Goal=   None    Shift=    0.000
 RMSDP=7.77D-07 MaxDP=7.20D-06 DE=-3.09D-08 OVMax= 1.29D-05

 Cycle   8  Pass 1  IDiag  1:
 E= -79.8096689906921     Delta-E=       -0.000000001459 Rises=F Damp=F
 DIIS: error= 2.98D-07 at cycle   8 NSaved=   8.
 NSaved= 8 IEnMin= 8 EnMin= -79.8096689906921     IErMin= 8 ErrMin= 2.98D-07
 ErrMax= 2.98D-07 EMaxC= 1.00D-01 BMatC= 7.14D-12 BMatP= 1.27D-09
 IDIUse=1 WtCom= 1.00D+00 WtEn= 0.00D+00
 Coeff-Com:  0.228D-05-0.546D-06-0.257D-03-0.103D-02-0.682D-03 0.125D-01
 Coeff-Com:  0.819D-01 0.908D+00
 Coeff:      0.228D-05-0.546D-06-0.257D-03-0.103D-02-0.682D-03 0.125D-01
 Coeff:      0.819D-01 0.908D+00
 Gap=     0.339 Goal=   None    Shift=    0.000
 RMSDP=7.44D-08 MaxDP=9.12D-07 DE=-1.46D-09 OVMax= 1.38D-06

 Cycle   9  Pass 1  IDiag  1:
 E= -79.8096689907009     Delta-E=       -0.000000000009 Rises=F Damp=F
 DIIS: error= 3.39D-08 at cycle   9 NSaved=   9.
 NSaved= 9 IEnMin= 9 EnMin= -79.8096689907009     IErMin= 9 ErrMin= 3.39D-08
 ErrMax= 3.39D-08 EMaxC= 1.00D-01 BMatC= 1.65D-13 BMatP= 7.14D-12
 IDIUse=1 WtCom= 1.00D+00 WtEn= 0.00D+00
 Coeff-Com: -0.972D-06 0.982D-06-0.273D-04-0.120D-03-0.323D-03-0.143D-02
 Coeff-Com:  0.618D-02 0.169D+00 0.827D+00
 Coeff:     -0.972D-06 0.982D-06-0.273D-04-0.120D-03-0.323D-03-0.143D-02
 Coeff:      0.618D-02 0.169D+00 0.827D+00
 Gap=     0.339 Goal=   None    Shift=    0.000
 RMSDP=1.18D-08 MaxDP=1.13D-07 DE=-8.77D-12 OVMax= 1.63D-07

 Cycle  10  Pass 1  IDiag  1:
 E= -79.8096689907012     Delta-E=       -0.000000000000 Rises=F Damp=F
 DIIS: error= 6.43D-09 at cycle  10 NSaved=  10.
 NSaved=10 IEnMin=10 EnMin= -79.8096689907012     IErMin=10 ErrMin= 6.43D-09
 ErrMax= 6.43D-09 EMaxC= 1.00D-01 BMatC= 3.20D-15 BMatP= 1.65D-13
 IDIUse=1 WtCom= 1.00D+00 WtEn= 0.00D+00
 Coeff-Com: -0.229D-06 0.213D-06-0.473D-06-0.609D-05-0.498D-04-0.524D-03
 Coeff-Com: -0.345D-03 0.139D-01 0.149D+00 0.838D+00
 Coeff:     -0.229D-06 0.213D-06-0.473D-06-0.609D-05-0.498D-04-0.524D-03
 Coeff:     -0.345D-03 0.139D-01 0.149D+00 0.838D+00
 Gap=     0.339 Goal=   None    Shift=    0.000
 RMSDP=1.50D-09 MaxDP=1.52D-08 DE=-2.98D-13 OVMax= 2.24D-08

 SCF Done:  E(RB3LYP) =  -79.8096689907     A.U. after   10 cycles
             Convg  =    0.1505D-08             -V/T =  2.0100
 KE= 7.901794189214D+01 PE=-2.683288496374D+02 EE= 6.718391943743D+01
 Leave Link  502 at Wed May 26 19:14:35 2021, MaxMem=   13107200 cpu:       6.5
 (Enter /programs/64bit/g09/g09-gfortran/bin/l601.exe)
 Copying SCF densities to generalized density rwf, IOpCl= 0 IROHF=0.

 **********************************************************************

            Population analysis using the SCF density.

 **********************************************************************

 Alpha  occ. eigenvalues --  -10.18507 -10.17510  -0.76302  -0.61915  -0.45054
 Alpha  occ. eigenvalues --   -0.43106  -0.37868  -0.33662  -0.32457
 Alpha virt. eigenvalues --    0.01462   0.02835   0.05204   0.05503   0.07866
 Alpha virt. eigenvalues --    0.08870   0.09090   0.13867   0.14491   0.19046
 Alpha virt. eigenvalues --    0.21772   0.24474   0.25525   0.28765   0.33122
 Alpha virt. eigenvalues --    0.62806   0.64073   0.65348   0.66995   0.69647
 Alpha virt. eigenvalues --    0.70195   0.88809   0.91881   0.94639   0.96940
 Alpha virt. eigenvalues --    1.05339   1.10498   1.11246   1.25886   1.35959
 Alpha virt. eigenvalues --    1.36934   1.63123   1.79866   1.83246   1.95958
 Alpha virt. eigenvalues --    2.04037   2.06776   2.12546   2.13692   2.20835
 Alpha virt. eigenvalues --    2.24598   2.31803   2.37918   2.46805   2.52626
 Alpha virt. eigenvalues --    2.66324   2.76050   2.77926   2.82749   2.88617
 Alpha virt. eigenvalues --    2.97430   3.21862   3.29670   3.40196   3.42830
 Alpha virt. eigenvalues --    3.51235   3.57255   4.35134   4.61627
          Condensed to atoms (all electrons):
              1          2          3          4          5          6
     1  C    5.166058   0.215989   0.378841   0.422426   0.406179  -0.059902
     2  C    0.215989   5.132404  -0.003775  -0.089632  -0.036032   0.412612
     3  H    0.378841  -0.003775   0.546658  -0.037789  -0.033282   0.004344
     4  H    0.422426  -0.089632  -0.037789   0.620069  -0.032949  -0.005440
     5  H    0.406179  -0.036032  -0.033282  -0.032949   0.554413  -0.011279
     6  H   -0.059902   0.412612   0.004344  -0.005440  -0.011279   0.574945
     7  H   -0.080171   0.443954  -0.000571  -0.018692   0.005022  -0.041616
     8  H   -0.024675   0.384873  -0.003209   0.006870  -0.000051  -0.025496
              7          8
     1  C   -0.080171  -0.024675
     2  C    0.443954   0.384873
     3  H   -0.000571  -0.003209
     4  H   -0.018692   0.006870
     5  H    0.005022  -0.000051
     6  H   -0.041616  -0.025496
     7  H    0.561151  -0.021147
     8  H   -0.021147   0.533502
 Mulliken atomic charges:
              1
     1  C   -0.424744
     2  C   -0.460394
     3  H    0.148783
     4  H    0.135137
     5  H    0.147981
     6  H    0.151831
     7  H    0.152070
     8  H    0.149335
 Sum of Mulliken atomic charges =  -0.00000
 Mulliken charges with hydrogens summed into heavy atoms:
              1
     1  C    0.007157
     2  C   -0.007157
 Sum of Mulliken charges with hydrogens summed into heavy atoms =  -0.00000
 Electronic spatial extent (au):  <R**2>=            146.7121
 Charge=             -0.0000 electrons
 Dipole moment (field-independent basis, Debye):
    X=             -0.1928    Y=             -0.2493    Z=              0.0247  Tot=              0.3161
 Quadrupole moment (field-independent basis, Debye-Ang):
   XX=            -15.3584   YY=            -15.1115   ZZ=            -15.5363
   XY=              0.0107   XZ=             -0.2669   YZ=             -0.2059
 Traceless Quadrupole moment (field-independent basis, Debye-Ang):
   XX=             -0.0230   YY=              0.2239   ZZ=             -0.2009
   XY=              0.0107   XZ=             -0.2669   YZ=             -0.2059
 Octapole moment (field-independent basis, Debye-Ang**2):
  XXX=              0.8529  YYY=              1.1138  ZZZ=            -36.5533  XYY=              0.7619
  XXY=              0.8763  XXZ=            -11.8216  XZZ=              0.7721  YZZ=              0.9356
  YYZ=            -10.2964  XYZ=              0.6867
 Hexadecapole moment (field-independent basis, Debye-Ang**3):
 XXXX=            -30.9443 YYYY=            -30.8471 ZZZZ=           -154.1124 XXXY=             -0.3226
 XXXZ=              0.2471 YYYX=              0.0981 YYYZ=              0.1755 ZZZX=              1.7403
 ZZZY=              1.7887 XXYY=            -10.7164 XXZZ=            -29.8098 YYZZ=            -28.3552
 XXYZ=              0.3975 YYXZ=              1.2827 ZZXY=              0.9576
 N-N= 4.231731931714D+01 E-N=-2.683288496210D+02  KE= 7.901794189214D+01
 No NMR shielding tensors so no spin-rotation constants.
 Leave Link  601 at Wed May 26 19:14:35 2021, MaxMem=   13107200 cpu:       0.1
 (Enter /programs/64bit/g09/g09-gfortran/bin/l701.exe)
 Compute integral first derivatives.
 ... and contract with generalized density number  0.
 Leave Link  701 at Wed May 26 19:14:35 2021, MaxMem=   13107200 cpu:       0.1
 (Enter /programs/64bit/g09/g09-gfortran/bin/l702.exe)
 L702 exits ... SP integral derivatives will be done elsewhere.
 Leave Link  702 at Wed May 26 19:14:35 2021, MaxMem=   13107200 cpu:       0.0
 (Enter /programs/64bit/g09/g09-gfortran/bin/l703.exe)
 Compute integral first derivatives, UseDBF=F ICtDFT=           0.
 Integral derivatives from FoFDir, PRISM(SPDF).
 Calling FoFJK, ICntrl=      2127 FMM=F ISym2X=0 I1Cent= 0 IOpClX= 0 NMat=1 NMatS=1 NMatT=0.
 FoFCou: FMM=F IPFlag=           0 FMFlag=      100000 FMFlg1=         800
         NFxFlg=           0 DoJE=F BraDBF=F KetDBF=F FulRan=T
         Omega=  0.000000  0.000000  1.000000  0.000000  0.000000 ICntrl=    2127 IOpCl=  0
         NMat0=    1 NMatS0=    1 NMatT0=    0 NMatD0=    1 NMtDS0=    0 NMtDT0=    0
         I1Cent=           0 NGrid=           0.
 Symmetry not used in FoFCou.
 Leave Link  703 at Wed May 26 19:14:36 2021, MaxMem=   13107200 cpu:       1.4
 (Enter /programs/64bit/g09/g09-gfortran/bin/l716.exe)
 Dipole        =-7.58418339D-02-9.80923611D-02 9.70462190D-03
 -------------------------------------------------------------------
 Center     Atomic                   Forces (Hartrees/Bohr)
 Number     Number              X              Y              Z
 -------------------------------------------------------------------
      1        6          -0.016993613   -0.038167849   -0.015000264
      2        6          -0.015338412    0.008642343   -0.014781476
      3        1           0.017566701    0.013816439    0.015371946
      4        1          -0.008632977   -0.007520595   -0.023049235
      5        1           0.000593402    0.010643855    0.007339522
      6        1           0.001379224    0.009562793    0.011350825
      7        1           0.018247586    0.007956455    0.013258199
      8        1           0.003178089   -0.004933441    0.005510484
 -------------------------------------------------------------------
 Cartesian Forces:  Max     0.038167849 RMS     0.014323241
 -----------------------------------------------------------------------------------------------
                       Internal Coordinate Forces (Hartree/Bohr or radian)
  Cent   Atom   N1       Length/X         N2         Alpha/Y        N3         Beta/Z          J
 -----------------------------------------------------------------------------------------------
      1  C 
      2  C        1   0.015338(     1)
      3  H        1   0.002904(     2)      2  -0.047737(     8)
      4  H        1   0.010039(     3)      2   0.046934(     9)      3   0.013503(    14)     0
      5  H        1   0.000841(     4)      2  -0.018012(    10)      3   0.017462(    15)     0
      6  H        2   0.000613(     5)      1   0.023658(    11)      3   0.009678(    16)     0
      7  H        2  -0.000004(     6)      1   0.028415(    12)      6   0.038844(    17)     0
      8  H        2   0.000248(     7)      1   0.012558(    13)      6  -0.009564(    18)     0
 -----------------------------------------------------------------------------------------------
 Internal  Forces:  Max     0.047737330 RMS     0.022183334
 Force constants in Cartesian coordinates: 
                1             2             3             4             5 
      1  0.638834D+00
      2 -0.297346D-01  0.590145D+00
      3 -0.335910D-01 -0.440145D-01  0.725000D+00
      4 -0.100852D+00 -0.154017D-02  0.625278D-02  0.618068D+00
      5 -0.159986D-02 -0.900863D-01  0.126510D-01  0.473963D-01  0.708144D+00
      6 -0.769913D-02 -0.430500D-02 -0.285984D+00  0.486670D-01  0.388788D-01
      7 -0.227695D+00  0.488690D-02  0.116344D+00  0.181495D-01  0.707287D-03
      8  0.182014D-01 -0.737424D-01 -0.685533D-02  0.105961D-02  0.593015D-02
      9  0.134464D+00  0.549166D-02 -0.216610D+00  0.203955D-01  0.794813D-03
     10 -0.798636D-01 -0.711369D-01 -0.203292D-03  0.333283D-03 -0.856101D-04
     11 -0.666832D-01 -0.328986D+00 -0.807247D-02  0.103875D-03  0.782093D-03
     12 -0.388462D-02 -0.236707D-01 -0.701887D-01 -0.638495D-02 -0.259637D-01
     13 -0.241886D+00  0.943558D-01 -0.888025D-01  0.100715D-01 -0.311264D-02
     14  0.766612D-01 -0.114169D+00  0.462913D-01 -0.367774D-02  0.769872D-02
     15 -0.969879D-01  0.621935D-01 -0.152218D+00 -0.202633D-01  0.125179D-01
     16  0.434738D-02 -0.632649D-04  0.000000D+00 -0.331105D+00  0.136393D-02
     17 -0.291996D-03  0.174767D-03  0.000000D+00 -0.471040D-02 -0.762770D-01
     18  0.261947D-01 -0.393628D-03  0.000000D+00  0.497137D-01 -0.109635D-01
     19  0.216935D-02 -0.137712D-02  0.000000D+00 -0.839136D-01  0.384730D-01
     20 -0.124885D-02  0.690848D-02  0.000000D+00  0.500230D-01 -0.317136D+00
     21 -0.604542D-02  0.250806D-01  0.000000D+00 -0.325531D-01  0.700602D-01
     22  0.494578D-02  0.460938D-02  0.000000D+00 -0.130752D+00 -0.831424D-01
     23  0.469597D-02  0.975470D-02  0.000000D+00 -0.886545D-01 -0.239055D+00
     24 -0.124502D-01 -0.203820D-01  0.000000D+00 -0.658276D-01 -0.979756D-01
                6             7             8             9            10 
      6  0.603132D+00
      7  0.000000D+00  0.224587D+00
      8  0.000000D+00 -0.464250D-02  0.538232D-01
      9  0.000000D+00 -0.137956D+00 -0.521701D-02  0.192323D+00
     10  0.000000D+00 -0.306207D-02 -0.268735D-01 -0.344100D-02  0.689278D-01
     11  0.000000D+00  0.669909D-03  0.597593D-02  0.752810D-03  0.695475D-01
     12  0.000000D+00  0.322543D-02  0.250088D-01  0.362457D-02 -0.700592D-03
     13  0.000000D+00 -0.119797D-01  0.122758D-01 -0.134621D-01  0.136797D-01
     14  0.000000D+00 -0.162159D-02  0.785561D-02 -0.182227D-02  0.284343D-01
     15  0.000000D+00  0.183864D-01 -0.129365D-01  0.206618D-01  0.434488D-02
     16  0.442974D-01  0.000000D+00  0.955569D-05  0.000000D+00  0.692923D-05
     17 -0.984705D-02  0.000000D+00  0.789153D-03  0.000000D+00  0.572248D-03
     18 -0.718937D-01  0.000000D+00  0.000000D+00  0.000000D+00  0.000000D+00
     19 -0.279030D-01  0.000000D+00 -0.792947D-03  0.000000D+00 -0.574999D-03
     20  0.648886D-01  0.000000D+00 -0.179684D-03  0.000000D+00 -0.130296D-03
     21 -0.986698D-01  0.000000D+00  0.000000D+00  0.000000D+00  0.000000D+00
     22 -0.573623D-01  0.000000D+00  0.762587D-03  0.000000D+00  0.552984D-03
     23 -0.896153D-01  0.000000D+00 -0.452009D-03  0.000000D+00 -0.327771D-03
     24 -0.146585D+00  0.000000D+00  0.000000D+00  0.000000D+00  0.000000D+00
               11            12            13            14            15 
     11  0.329828D+00
     12  0.847778D-02  0.640568D-01
     13 -0.364189D-02  0.774473D-02  0.230106D+00
     14 -0.757144D-02  0.161478D-01 -0.998113D-01  0.106301D+00
     15 -0.115811D-02  0.250729D-02  0.945199D-01 -0.606169D-01  0.129048D+00
     16 -0.172981D-05  0.000000D+00 -0.399189D-05 -0.696743D-05  0.000000D+00
     17 -0.142856D-03  0.000000D+00 -0.329669D-03 -0.575403D-03  0.000000D+00
     18  0.000000D+00  0.000000D+00  0.000000D+00  0.000000D+00  0.000000D+00
     19  0.143542D-03  0.000000D+00  0.331253D-03  0.578169D-03  0.000000D+00
     20  0.325270D-04  0.000000D+00  0.750628D-04  0.131015D-03  0.000000D+00
     21  0.000000D+00  0.000000D+00  0.000000D+00  0.000000D+00  0.000000D+00
     22 -0.138046D-03  0.000000D+00 -0.318571D-03 -0.556032D-03  0.000000D+00
     23  0.818245D-04  0.000000D+00  0.188827D-03  0.329578D-03  0.000000D+00
     24  0.000000D+00  0.000000D+00  0.000000D+00  0.000000D+00  0.000000D+00
               16            17            18            19            20 
     16  0.331614D+00
     17 -0.223736D-02  0.608413D-01
     18 -0.461403D-01  0.683023D-02  0.610183D-01
     19 -0.142340D-02  0.343151D-01 -0.110712D-01  0.696811D-01
     20 -0.210458D-03  0.556048D-02 -0.167243D-02 -0.551725D-01  0.313184D+00
     21  0.389343D-03 -0.769526D-02  0.290504D-02  0.258690D-01 -0.706441D-01
     22 -0.343631D-02 -0.273179D-01 -0.186968D-01  0.137304D-01  0.666399D-02
     23  0.114630D-02  0.962954D-02  0.619928D-02 -0.161672D-01 -0.850059D-02
     24  0.145357D-02  0.107121D-01  0.797030D-02  0.131053D-01  0.742791D-02
               21            22            23            24 
     21  0.802791D-01
     22  0.123402D-01  0.115278D+00
     23 -0.168015D-01  0.991185D-01  0.228212D+00
     24  0.154857D-01  0.637190D-01  0.100218D+00  0.123129D+00
 Force constants in internal coordinates: 
                1             2             3             4             5 
      1  0.285984D+00
      2  0.000000D+00  0.347351D+00
      3  0.000000D+00  0.000000D+00  0.347438D+00
      4  0.000000D+00  0.000000D+00  0.000000D+00  0.344099D+00
      5  0.000000D+00  0.000000D+00  0.000000D+00  0.000000D+00  0.339305D+00
      6  0.000000D+00  0.000000D+00  0.000000D+00  0.000000D+00  0.000000D+00
      7  0.000000D+00  0.000000D+00  0.000000D+00  0.000000D+00  0.000000D+00
      8  0.000000D+00  0.000000D+00  0.000000D+00  0.000000D+00  0.000000D+00
      9  0.000000D+00  0.000000D+00  0.000000D+00  0.000000D+00  0.000000D+00
     10  0.000000D+00  0.000000D+00  0.000000D+00  0.000000D+00  0.000000D+00
     11  0.000000D+00  0.000000D+00  0.000000D+00  0.000000D+00  0.000000D+00
     12  0.000000D+00  0.000000D+00  0.000000D+00  0.000000D+00  0.000000D+00
     13  0.000000D+00  0.000000D+00  0.000000D+00  0.000000D+00  0.000000D+00
     14  0.000000D+00  0.000000D+00  0.000000D+00  0.000000D+00  0.000000D+00
     15  0.000000D+00  0.000000D+00  0.000000D+00  0.000000D+00  0.000000D+00
     16  0.000000D+00  0.000000D+00  0.000000D+00  0.000000D+00  0.000000D+00
     17  0.000000D+00  0.000000D+00  0.000000D+00  0.000000D+00  0.000000D+00
     18  0.000000D+00  0.000000D+00  0.000000D+00  0.000000D+00  0.000000D+00
                6             7             8             9            10 
      6  0.346024D+00
      7  0.000000D+00  0.348360D+00
      8  0.000000D+00  0.000000D+00  0.295490D+00
      9  0.000000D+00  0.000000D+00  0.206178D-01  0.271104D+00
     10  0.000000D+00  0.000000D+00  0.132854D+00  0.120476D-01  0.301323D+00
     11  0.000000D+00  0.000000D+00  0.000000D+00  0.000000D+00  0.000000D+00
     12  0.000000D+00  0.000000D+00  0.000000D+00  0.000000D+00  0.000000D+00
     13  0.000000D+00  0.000000D+00  0.000000D+00  0.000000D+00  0.000000D+00
     14  0.000000D+00  0.000000D+00 -0.200118D-01 -0.116086D-01  0.215861D-01
     15  0.000000D+00  0.000000D+00  0.418238D-01 -0.674740D-01  0.239466D-01
     16  0.000000D+00  0.000000D+00  0.000000D+00  0.000000D+00  0.000000D+00
     17  0.000000D+00  0.000000D+00  0.000000D+00  0.000000D+00  0.000000D+00
     18  0.000000D+00  0.000000D+00  0.000000D+00  0.000000D+00  0.000000D+00
               11            12            13            14            15 
     11  0.229554D+00
     12  0.130918D-01  0.252566D+00
     13  0.390175D-01  0.772551D-01  0.256896D+00
     14  0.000000D+00  0.000000D+00  0.000000D+00  0.218764D+00
     15  0.000000D+00  0.000000D+00  0.000000D+00 -0.122921D+00  0.170514D+00
     16  0.960405D-04 -0.230520D-03 -0.166774D-03  0.746023D-02  0.746023D-02
     17 -0.466479D-01  0.409399D-01  0.666948D-01  0.248674D-02  0.248674D-02
     18  0.737311D-01 -0.748956D-01 -0.157497D-01  0.248674D-02  0.248674D-02
               16            17            18 
     16  0.225105D-01
     17  0.824059D-02  0.228039D+00
     18  0.656814D-02 -0.788374D-01  0.191481D+00
 Leave Link  716 at Wed May 26 19:14:36 2021, MaxMem=   13107200 cpu:       0.0
 (Enter /programs/64bit/g09/g09-gfortran/bin/l103.exe)

 GradGradGradGradGradGradGradGradGradGradGradGradGradGradGradGradGradGrad
 Berny optimization.
 Search for a local minimum.
 Step number   1 out of a maximum of    2
 All quantities printed in internal units (Hartrees-Bohrs-Radians)
 Second derivative matrix not updated -- first step.
 The second derivative matrix:
                          d1        a1        t1        d2        a2
           d1           0.28598
           a1           0.00000   0.29549
           t1           0.00000  -0.02001   0.21876
           d2           0.00000  -0.00000  -0.00000   0.34735
           a2          -0.00000   0.02062  -0.01161   0.00000   0.27110
           t2          -0.00000   0.04182  -0.12292   0.00000  -0.06747
           d3           0.00000  -0.00000  -0.00000   0.00000  -0.00000
           d4           0.00000  -0.00000  -0.00000   0.00000  -0.00000
           a3          -0.00000   0.13285   0.02159   0.00000   0.01205
           d5          -0.00000   0.00000   0.00000   0.00000  -0.00000
           a4           0.00000   0.00000   0.00000   0.00000   0.00000
           t3          -0.00000   0.00000   0.00746   0.00000  -0.00000
           d6          -0.00000   0.00000   0.00000   0.00000   0.00000
           a5           0.00000   0.00000   0.00000   0.00000  -0.00000
           t4          -0.00000   0.00000   0.00249   0.00000   0.00000
           d7          -0.00000   0.00000  -0.00000   0.00000   0.00000
           a6           0.00000   0.00000   0.00000   0.00000  -0.00000
           t5          -0.00000   0.00000   0.00249   0.00000  -0.00000
                          t2        d3        d4        a3        d5
           t2           0.17051
           d3           0.00000   0.34744
           d4           0.00000  -0.00000   0.34410
           a3           0.02395   0.00000  -0.00000   0.30132
           d5          -0.00000  -0.00000  -0.00000  -0.00000   0.33930
           a4          -0.00000   0.00000  -0.00000   0.00000  -0.00000
           t3           0.00746   0.00000  -0.00000   0.00000   0.00000
           d6          -0.00000  -0.00000  -0.00000   0.00000   0.00000
           a5           0.00000   0.00000   0.00000  -0.00000  -0.00000
           t4           0.00249  -0.00000  -0.00000   0.00000  -0.00000
           d7           0.00000  -0.00000   0.00000  -0.00000  -0.00000
           a6          -0.00000   0.00000   0.00000  -0.00000  -0.00000
           t5           0.00249  -0.00000   0.00000   0.00000  -0.00000
                          a4        t3        d6        a5        t4
           a4           0.22955
           t3           0.00010   0.02251
           d6          -0.00000   0.00000   0.34602
           a5           0.01309  -0.00023   0.00000   0.25257
           t4          -0.04665   0.00824   0.00000   0.04094   0.22804
           d7           0.00000  -0.00000  -0.00000  -0.00000  -0.00000
           a6           0.03902  -0.00017   0.00000   0.07726   0.06669
           t5           0.07373   0.00657  -0.00000  -0.07490  -0.07884
                          d7        a6        t5
           d7           0.34836
           a6           0.00000   0.25690
           t5          -0.00000  -0.01575   0.19148
     Eigenvalues --- 1000.000001000.000001000.000001000.000001000.00000
     Eigenvalues --- 1000.000001000.000001000.000001000.000001000.00000
     Eigenvalues --- 1000.000001000.000001000.000001000.000001000.00000
     Eigenvalues --- 1000.000001000.000001000.00000
 Angle between quadratic step and forces=  90.00 degrees.
 Linear search not attempted -- first point.
 Variable       Old X    -DE/DX   Delta X   Delta X   Delta X     New X
                                 (Linear)    (Quad)   (Total)
    d1        2.90849   0.01534   0.00000   0.00000   0.00000   2.90849
    a1        2.29799  -0.04774   0.00000   0.00000   0.00000   2.29799
    t1        1.81544   0.01350   0.00000   0.00000   0.00000   1.81544
    d2        2.06107   0.00290   0.00000   0.00000   0.00000   2.06107
    a2        1.59922   0.04693   0.00000   0.00000   0.00000   1.59922
    t2       -2.62131   0.01746   0.00000   0.00000   0.00000  -2.62131
    d3        2.06093   0.01004   0.00000   0.00000   0.00000   2.06093
    d4        2.06644   0.00084   0.00000   0.00000   0.00000   2.06644
    a3        2.05149  -0.01801   0.00000   0.00000   0.00000   2.05149
    d5        2.07448   0.00061   0.00000   0.00000   0.00000   2.07448
    a4        1.73538   0.02366   0.00000   0.00000   0.00000   1.73538
    t3        3.12948   0.00968   0.00000   0.00000   0.00000   3.12948
    d6        2.06325  -0.00000   0.00000   0.00000   0.00000   2.06325
    a5        1.84452   0.02842   0.00000   0.00000   0.00000   1.84452
    t4        1.80574   0.03884   0.00000   0.00000   0.00000   1.80574
    d7        2.05942   0.00025   0.00000   0.00000   0.00000   2.05942
    a6        2.05582   0.01256   0.00000   0.00000   0.00000   2.05582
    t5       -2.09375  -0.00956   0.00000   0.00000   0.00000  -2.09375
         Item               Value     Threshold  Converged?
 Maximum Force            0.000000     0.000450     YES
 RMS     Force            0.000000     0.000300     YES
 Maximum Displacement     0.000000     0.001800     YES
 RMS     Displacement     0.000000     0.001200     YES
 Predicted change in Energy=-0.000000D+00
 Optimization completed.
    -- Stationary point found.
                       ----------------------------
                       !   Optimized Parameters   !
                       ! (Angstroms and Degrees)  !
 ----------------------                            ----------------------
 !      Name          Value   Derivative information (Atomic Units)     !
 ------------------------------------------------------------------------
 !       d1          1.5391   -DE/DX =    0.0153                        !
 !       a1        131.6652   -DE/DX =   -0.0477                        !
 !       t1        104.0168   -DE/DX =    0.0135                        !
 !       d2          1.0907   -DE/DX =    0.0029                        !
 !       a2         91.6283   -DE/DX =    0.0469                        !
 !       t2       -150.1901   -DE/DX =    0.0175                        !
 !       d3          1.0906   -DE/DX =    0.01                          !
 !       d4          1.0935   -DE/DX =    0.0008                        !
 !       a3        117.5416   -DE/DX =   -0.018                         !
 !       d5          1.0978   -DE/DX =    0.0006                        !
 !       a4         99.43     -DE/DX =    0.0237                        !
 !       t3        179.3063   -DE/DX =    0.0097                        !
 !       d6          1.0918   -DE/DX =    0.0                           !
 !       a5        105.6834   -DE/DX =    0.0284                        !
 !       t4        103.4615   -DE/DX =    0.0388                        !
 !       d7          1.0898   -DE/DX =    0.0002                        !
 !       a6        117.79     -DE/DX =    0.0126                        !
 !       t5       -119.9628   -DE/DX =   -0.0096                        !
 ------------------------------------------------------------------------
 GradGradGradGradGradGradGradGradGradGradGradGradGradGradGradGradGradGrad

 Leave Link  103 at Wed May 26 19:14:36 2021, MaxMem=   13107200 cpu:       0.0
 (Enter /programs/64bit/g09/g09-gfortran/bin/l9999.exe)
 1\1\GINC-MOLMOD\Force\RB3LYP\6-31+G(d,p)\C2H6\OSPITE\26-May-2021\1\\#p
  b3lyp/6-31+g(d,p) force nosym\\c2h6 molecule\\0,1\C\C,1,d1\H,1,d2,2,a
 1\H,1,d3,2,a2,3,t1,0\H,1,d4,2,a3,3,t2,0\H,2,d5,1,a4,3,t3,0\H,2,d6,1,a5
 ,6,t4,0\H,2,d7,1,a6,6,t5,0\\d1=1.53910417\a1=131.6651647\t1=104.016780
 76\d2=1.09067165\a2=91.62830648\t2=-150.19008844\d3=1.0905966\d4=1.093
 51186\a3=117.54163833\d5=1.09776503\a4=99.42998032\t3=179.30625169\d6=
 1.0918268\a5=105.68338897\t4=103.46149645\d7=1.08979769\a6=117.7899746
 6\t5=-119.96281599\\Version=EM64L-G09RevA.02\HF=-79.809669\RMSD=1.505e
 -09\RMSF=1.432e-02\Dipole=-0.0758418,-0.0980924,0.0097046\Quadrupole=-
 0.0171005,0.1664353,-0.1493348,0.0079732,-0.1984435,-0.1530842\PG=C01 
 [X(C2H6)]\\@


 DIATOMIC MOLECULES ARE PECULIAR BECAUSE THEY ONLY HAVE TWO ENDS,
 AND THESE ENDS ARE VERY CLOSE TOGETHER.
 KLAUS RUEDENBERG, REV.MOD.PHYS. PG 176, 32, (1960)
 Job cpu time:  0 days  0 hours  0 minutes  9.0 seconds.
 File lengths (MBytes):  RWF=      5 Int=      0 D2E=      0 Chk=      1 Scr=      1
 Normal termination of Gaussian 09 at Wed May 26 19:14:36 2021.
