 Entering Gaussian System, Link 0=g09
 Input=c2h6_046.com
 Output=c2h6_046.log
 Initial command:
 /programs/64bit/g09/g09-gfortran/bin/l1.exe /data/scratch/Gau-7016.inp -scrdir=/data/scratch/
 Entering Link 1 = /programs/64bit/g09/g09-gfortran/bin/l1.exe PID=      7017.
  
 Copyright (c) 1988,1990,1992,1993,1995,1998,2003,2009, Gaussian, Inc.
                  All Rights Reserved.
  
 This is part of the Gaussian(R) 09 program.  It is based on
 the Gaussian(R) 03 system (copyright 2003, Gaussian, Inc.),
 the Gaussian(R) 98 system (copyright 1998, Gaussian, Inc.),
 the Gaussian(R) 94 system (copyright 1995, Gaussian, Inc.),
 the Gaussian 92(TM) system (copyright 1992, Gaussian, Inc.),
 the Gaussian 90(TM) system (copyright 1990, Gaussian, Inc.),
 the Gaussian 88(TM) system (copyright 1988, Gaussian, Inc.),
 the Gaussian 86(TM) system (copyright 1986, Carnegie Mellon
 University), and the Gaussian 82(TM) system (copyright 1983,
 Carnegie Mellon University). Gaussian is a federally registered
 trademark of Gaussian, Inc.
  
 This software contains proprietary and confidential information,
 including trade secrets, belonging to Gaussian, Inc.
  
 This software is provided under written license and may be
 used, copied, transmitted, or stored only in accord with that
 written license.
  
 The following legend is applicable only to US Government
 contracts under FAR:
  
                    RESTRICTED RIGHTS LEGEND
  
 Use, reproduction and disclosure by the US Government is
 subject to restrictions as set forth in subparagraphs (a)
 and (c) of the Commercial Computer Software - Restricted
 Rights clause in FAR 52.227-19.
  
 Gaussian, Inc.
 340 Quinnipiac St., Bldg. 40, Wallingford CT 06492
  
  
 ---------------------------------------------------------------
 Warning -- This program may not be used in any manner that
 competes with the business of Gaussian, Inc. or will provide
 assistance to any competitor of Gaussian, Inc.  The licensee
 of this program is prohibited from giving any competitor of
 Gaussian, Inc. access to this program.  By using this program,
 the user acknowledges that Gaussian, Inc. is engaged in the
 business of creating and licensing software in the field of
 computational chemistry and represents and warrants to the
 licensee that it is not a competitor of Gaussian, Inc. and that
 it will not use this program in any manner prohibited above.
 ---------------------------------------------------------------
  

 Cite this work as:
 Gaussian 09, Revision A.02,
 M. J. Frisch, G. W. Trucks, H. B. Schlegel, G. E. Scuseria, 
 M. A. Robb, J. R. Cheeseman, G. Scalmani, V. Barone, B. Mennucci, 
 G. A. Petersson, H. Nakatsuji, M. Caricato, X. Li, H. P. Hratchian, 
 A. F. Izmaylov, J. Bloino, G. Zheng, J. L. Sonnenberg, M. Hada, 
 M. Ehara, K. Toyota, R. Fukuda, J. Hasegawa, M. Ishida, T. Nakajima, 
 Y. Honda, O. Kitao, H. Nakai, T. Vreven, J. A. Montgomery, Jr., 
 J. E. Peralta, F. Ogliaro, M. Bearpark, J. J. Heyd, E. Brothers, 
 K. N. Kudin, V. N. Staroverov, R. Kobayashi, J. Normand, 
 K. Raghavachari, A. Rendell, J. C. Burant, S. S. Iyengar, J. Tomasi, 
 M. Cossi, N. Rega, J. M. Millam, M. Klene, J. E. Knox, J. B. Cross, 
 V. Bakken, C. Adamo, J. Jaramillo, R. Gomperts, R. E. Stratmann, 
 O. Yazyev, A. J. Austin, R. Cammi, C. Pomelli, J. W. Ochterski, 
 R. L. Martin, K. Morokuma, V. G. Zakrzewski, G. A. Voth, 
 P. Salvador, J. J. Dannenberg, S. Dapprich, A. D. Daniels, 
 O. Farkas, J. B. Foresman, J. V. Ortiz, J. Cioslowski, 
 and D. J. Fox, Gaussian, Inc., Wallingford CT, 2009.
 
 ******************************************
 Gaussian 09:  EM64L-G09RevA.02 11-Jun-2009
                26-May-2021 
 ******************************************
 %chk=c2h6_046.chk
 %mem=100MB
 --------------------------------
 #p b3lyp/6-31+g(d,p) force nosym
 --------------------------------
 1/10=7,30=1,38=1/1,3;
 2/12=2,15=1,17=6,18=5,40=1/2;
 3/5=1,6=6,7=111,11=2,16=1,25=1,30=1,71=1,74=-5/1,2,3;
 4//1;
 5/5=2,38=5/2;
 6/7=2,8=2,9=2,10=2,28=1/1;
 7/29=1,30=1/1,2,3,16;
 1/10=7,30=1/3;
 99//99;
 Leave Link    1 at Wed May 26 19:15:24 2021, MaxMem=   13107200 cpu:       0.0
 (Enter /programs/64bit/g09/g09-gfortran/bin/l101.exe)
 -------------
 c2h6 molecule
 -------------
 Symbolic Z-matrix:
 Charge =  0 Multiplicity = 1
 C1
 C2                   1    d1
 H3                   1    d2       2    a1
 H4                   1    d3       2    a2       3    t1       0
 H5                   1    d4       2    a3       3    t2       0
 H6                   2    d5       1    a4       3    t3       0
 H7                   2    d6       1    a5       6    t4       0
 H8                   2    d7       1    a6       6    t5       0
       Variables:
       Constants:
  d1                    1.56918                  
  a1                  131.98035                  
  t1                  104.24849                  
  d2                    1.09853                  
  a2                   91.91387                  
  t2                 -150.42693                  
  d3                    1.11361                  
  d4                    1.09279                  
  a3                  117.65403                  
  d5                    1.09993                  
  a4                   99.63006                  
  t3                  179.32219                  
  d6                    1.09102                  
  a5                  105.86619                  
  t4                  103.55569                  
  d7                    1.08548                  
  a6                  118.19128                  
  t5                 -119.97652                  
 
 NAtoms=      8 NQM=      8 NQMF=      0 NMic=      0 NMicF=      0 NTot=      8.
                    Isotopes and Nuclear Properties:
 (Nuclear quadrupole moments (NQMom) in fm**2, nuclear magnetic moments (NMagM)
  in nuclear magnetons)

  Atom         1           2           3           4           5           6           7           8
 IAtWgt=          12          12           1           1           1           1           1           1
 AtmWgt=  12.0000000  12.0000000   1.0078250   1.0078250   1.0078250   1.0078250   1.0078250   1.0078250
 NucSpn=           0           0           1           1           1           1           1           1
 AtZEff=   0.0000000   0.0000000   0.0000000   0.0000000   0.0000000   0.0000000   0.0000000   0.0000000
 NQMom=    0.0000000   0.0000000   0.0000000   0.0000000   0.0000000   0.0000000   0.0000000   0.0000000
 NMagM=    0.0000000   0.0000000   2.7928460   2.7928460   2.7928460   2.7928460   2.7928460   2.7928460
 Leave Link  101 at Wed May 26 19:15:24 2021, MaxMem=   13107200 cpu:       0.0
 (Enter /programs/64bit/g09/g09-gfortran/bin/l103.exe)

 GradGradGradGradGradGradGradGradGradGradGradGradGradGradGradGradGradGrad
 Berny optimization.
 Initialization pass.
                       ----------------------------
                       !    Initial Parameters    !
                       ! (Angstroms and Degrees)  !
 ----------------------                            ----------------------
 !      Name          Value   Derivative information (Atomic Units)     !
 ------------------------------------------------------------------------
 !       d1          1.5692   Frozen                                    !
 !       a1        131.9803   Frozen                                    !
 !       t1        104.2485   Frozen                                    !
 !       d2          1.0985   Frozen                                    !
 !       a2         91.9139   Frozen                                    !
 !       t2       -150.4269   Frozen                                    !
 !       d3          1.1136   Frozen                                    !
 !       d4          1.0928   Frozen                                    !
 !       a3        117.654    Frozen                                    !
 !       d5          1.0999   Frozen                                    !
 !       a4         99.6301   Frozen                                    !
 !       t3        179.3222   Frozen                                    !
 !       d6          1.091    Frozen                                    !
 !       a5        105.8662   Frozen                                    !
 !       t4        103.5557   Frozen                                    !
 !       d7          1.0855   Frozen                                    !
 !       a6        118.1913   Frozen                                    !
 !       t5       -119.9765   Frozen                                    !
 ------------------------------------------------------------------------
 Trust Radius=3.00D-01 FncErr=1.00D-07 GrdErr=1.00D-07
 Number of steps in this run=   2 maximum allowed number of steps=   2.
 GradGradGradGradGradGradGradGradGradGradGradGradGradGradGradGradGradGrad

 Leave Link  103 at Wed May 26 19:15:24 2021, MaxMem=   13107200 cpu:       0.0
 (Enter /programs/64bit/g09/g09-gfortran/bin/l202.exe)
                          Input orientation:                          
 ---------------------------------------------------------------------
 Center     Atomic      Atomic             Coordinates (Angstroms)
 Number     Number       Type             X           Y           Z
 ---------------------------------------------------------------------
      1          6           0        0.000000    0.000000    0.000000
      2          6           0        0.000000    0.000000    1.569180
      3          1           0        0.816617    0.000000   -0.734778
      4          1           0       -0.273936   -1.078747   -0.037191
      5          1           0       -0.841857    0.477718   -0.507198
      6          1           0       -1.084351    0.012828    1.753183
      7          1           0        0.233896   -1.023056    1.867455
      8          1           0        0.487788    0.823022    2.081979
 ---------------------------------------------------------------------
                    Distance matrix (angstroms):
                    1          2          3          4          5
     1  C    0.000000
     2  C    1.569180   0.000000
     3  H    1.098527   2.444399   0.000000
     4  H    1.113606   1.954268   1.685120   0.000000
     5  H    1.092788   2.290913   1.740845   1.722214   0.000000
     6  H    2.061464   1.099927   3.131101   2.248054   2.320397
     7  H    2.142135   1.091018   2.856191   1.971972   3.008080
     8  H    2.291274   1.085479   2.952899   2.947513   2.931045
                    6          7          8
     6  H    0.000000
     7  H    1.680444   0.000000
     8  H    1.798929   1.875764   0.000000
 Symmetry turned off by external request.
 Stoichiometry    C2H6
 Framework group  C1[X(C2H6)]
 Deg. of freedom    18
 Full point group                 C1      NOp   1
 Rotational constants (GHZ):     83.6257412     19.2816450     19.1379784
 Leave Link  202 at Wed May 26 19:15:24 2021, MaxMem=   13107200 cpu:       0.0
 (Enter /programs/64bit/g09/g09-gfortran/bin/l301.exe)
 Standard basis: 6-31+G(d,p) (6D, 7F)
 Ernie: Thresh=  0.10000D-02 Tol=  0.10000D-05 Strict=F.
 Integral buffers will be    131072 words long.
 Raffenetti 2 integral format.
 Two-electron integral symmetry is turned off.
    68 basis functions,   106 primitive gaussians,    68 cartesian basis functions
     9 alpha electrons        9 beta electrons
       nuclear repulsion energy        41.8444605668 Hartrees.
 IExCor=  402 DFT=T Ex+Corr=B3LYP ExCW=0 ScaHFX=  0.200000
 ScaDFX=  0.800000  0.720000  1.000000  0.810000 ScalE2=  1.000000  1.000000
 IRadAn=      0 IRanWt=     -1 IRanGd=            0 ICorTp=0
 NAtoms=    8 NActive=    8 NUniq=    8 SFac= 7.50D-01 NAtFMM=   80 NAOKFM=F Big=F
 Leave Link  301 at Wed May 26 19:15:24 2021, MaxMem=   13107200 cpu:       0.0
 (Enter /programs/64bit/g09/g09-gfortran/bin/l302.exe)
 NPDir=0 NMtPBC=     1 NCelOv=     1 NCel=       1 NClECP=     1 NCelD=      1
         NCelK=      1 NCelE2=     1 NClLst=     1 CellRange=     0.0.
 One-electron integrals computed using PRISM.
 NBasis=    68 RedAO= T  NBF=    68
 NBsUse=    68 1.00D-06 NBFU=    68
 Precomputing XC quadrature grid using
 IXCGrd= 2 IRadAn=           0 IRanWt=          -1 IRanGd=           0 AccXCQ= 1.00D-10.
 NRdTot=     510 NPtTot=       65100 NUsed=       68787 NTot=       68819
 NSgBfM=    68    68    68    68    68 NAtAll=     8     8.
 Leave Link  302 at Wed May 26 19:15:24 2021, MaxMem=   13107200 cpu:       0.1
 (Enter /programs/64bit/g09/g09-gfortran/bin/l303.exe)
 DipDrv:  MaxL=1.
 Leave Link  303 at Wed May 26 19:15:24 2021, MaxMem=   13107200 cpu:       0.0
 (Enter /programs/64bit/g09/g09-gfortran/bin/l401.exe)
 Harris functional with IExCor=  402 diagonalized for initial guess.
 ExpMin= 4.38D-02 ExpMax= 3.05D+03 ExpMxC= 4.57D+02 IAcc=2 IRadAn=         0 AccDes= 0.00D+00
 HarFok:  IExCor=  402 AccDes= 0.00D+00 IRadAn=         0 IDoV= 1
 ScaDFX=  1.000000  1.000000  1.000000  1.000000
 FoFCou: FMM=F IPFlag=           0 FMFlag=      100000 FMFlg1=           0
         NFxFlg=           0 DoJE=T BraDBF=F KetDBF=T FulRan=T
         Omega=  0.000000  0.000000  1.000000  0.000000  0.000000 ICntrl=     500 IOpCl=  0
         NMat0=    1 NMatS0=    1 NMatT0=    0 NMatD0=    1 NMtDS0=    0 NMtDT0=    0
         I1Cent=           4 NGrid=           0.
 Symmetry not used in FoFCou.
 Harris En= -79.8635030414685    
 Leave Link  401 at Wed May 26 19:15:25 2021, MaxMem=   13107200 cpu:       0.7
 (Enter /programs/64bit/g09/g09-gfortran/bin/l502.exe)
 Closed shell SCF:
 Requested convergence on RMS density matrix=1.00D-08 within 128 cycles.
 Requested convergence on MAX density matrix=1.00D-06.
 Requested convergence on             energy=1.00D-06.
 No special actions if energy rises.
 Using DIIS extrapolation, IDIIS=  1040.
 Two-electron integral symmetry not used.
        68702 words used for storage of precomputed grid.
 Keep R1 ints in memory in canonical form, NReq=3743087.
 IEnd=      101552 IEndB=      101552 NGot=    13107200 MDV=    10273922
 LenX=    10273922 LenY=    10268857
 Symmetry not used in FoFDir.
 MinBra= 0 MaxBra= 2 Meth= 1.
 IRaf=       0 NMat=   1 IRICut=       1 DoRegI=T DoRafI=F ISym2E= 0 JSym2E=0.

 Cycle   1  Pass 1  IDiag  1:
 E= -79.6858057627230    
 DIIS: error= 3.85D-02 at cycle   1 NSaved=   1.
 NSaved= 1 IEnMin= 1 EnMin= -79.6858057627230     IErMin= 1 ErrMin= 3.85D-02
 ErrMax= 3.85D-02 EMaxC= 1.00D-01 BMatC= 1.09D-01 BMatP= 1.09D-01
 IDIUse=3 WtCom= 6.15D-01 WtEn= 3.85D-01
 Coeff-Com:  0.100D+01
 Coeff-En:   0.100D+01
 Coeff:      0.100D+01
 Gap=     0.255 Goal=   None    Shift=    0.000
 GapD=    0.255 DampG=1.000 DampE=0.500 DampFc=0.5000 IDamp=-1.
 Damping current iteration by 5.00D-01
 RMSDP=1.00D-02 MaxDP=1.40D-01              OVMax= 2.03D-01

 Cycle   2  Pass 1  IDiag  1:
 E= -79.7370772519997     Delta-E=       -0.051271489277 Rises=F Damp=T
 DIIS: error= 1.11D-02 at cycle   2 NSaved=   2.
 NSaved= 2 IEnMin= 2 EnMin= -79.7370772519997     IErMin= 2 ErrMin= 1.11D-02
 ErrMax= 1.11D-02 EMaxC= 1.00D-01 BMatC= 4.75D-03 BMatP= 1.09D-01
 IDIUse=3 WtCom= 8.89D-01 WtEn= 1.11D-01
 Coeff-Com:  0.112D+00 0.888D+00
 Coeff-En:   0.191D+00 0.809D+00
 Coeff:      0.121D+00 0.879D+00
 Gap=     0.353 Goal=   None    Shift=    0.000
 RMSDP=1.68D-03 MaxDP=1.74D-02 DE=-5.13D-02 OVMax= 1.14D-01

 Cycle   3  Pass 1  IDiag  1:
 E= -79.8101276403381     Delta-E=       -0.073050388338 Rises=F Damp=F
 DIIS: error= 1.70D-03 at cycle   3 NSaved=   3.
 NSaved= 3 IEnMin= 3 EnMin= -79.8101276403381     IErMin= 3 ErrMin= 1.70D-03
 ErrMax= 1.70D-03 EMaxC= 1.00D-01 BMatC= 2.36D-04 BMatP= 4.75D-03
 IDIUse=3 WtCom= 9.83D-01 WtEn= 1.70D-02
 Coeff-Com:  0.947D-02 0.144D+00 0.846D+00
 Coeff-En:   0.000D+00 0.000D+00 0.100D+01
 Coeff:      0.931D-02 0.142D+00 0.849D+00
 Gap=     0.339 Goal=   None    Shift=    0.000
 RMSDP=3.20D-04 MaxDP=2.68D-03 DE=-7.31D-02 OVMax= 5.20D-03

 Cycle   4  Pass 1  IDiag  1:
 E= -79.8103340553076     Delta-E=       -0.000206414970 Rises=F Damp=F
 DIIS: error= 5.75D-04 at cycle   4 NSaved=   4.
 NSaved= 4 IEnMin= 4 EnMin= -79.8103340553076     IErMin= 4 ErrMin= 5.75D-04
 ErrMax= 5.75D-04 EMaxC= 1.00D-01 BMatC= 2.20D-05 BMatP= 2.36D-04
 IDIUse=3 WtCom= 9.94D-01 WtEn= 5.75D-03
 Coeff-Com:  0.422D-05 0.317D-02 0.222D+00 0.775D+00
 Coeff-En:   0.000D+00 0.000D+00 0.000D+00 0.100D+01
 Coeff:      0.419D-05 0.315D-02 0.221D+00 0.776D+00
 Gap=     0.339 Goal=   None    Shift=    0.000
 RMSDP=8.39D-05 MaxDP=1.18D-03 DE=-2.06D-04 OVMax= 1.92D-03

 Cycle   5  Pass 1  IDiag  1:
 E= -79.8103506382687     Delta-E=       -0.000016582961 Rises=F Damp=F
 DIIS: error= 2.90D-04 at cycle   5 NSaved=   5.
 NSaved= 5 IEnMin= 5 EnMin= -79.8103506382687     IErMin= 5 ErrMin= 2.90D-04
 ErrMax= 2.90D-04 EMaxC= 1.00D-01 BMatC= 5.18D-06 BMatP= 2.20D-05
 IDIUse=3 WtCom= 9.97D-01 WtEn= 2.90D-03
 Coeff-Com: -0.717D-04-0.310D-02 0.921D-01 0.421D+00 0.490D+00
 Coeff-En:   0.000D+00 0.000D+00 0.000D+00 0.858D-01 0.914D+00
 Coeff:     -0.714D-04-0.309D-02 0.919D-01 0.420D+00 0.492D+00
 Gap=     0.339 Goal=   None    Shift=    0.000
 RMSDP=2.83D-05 MaxDP=5.20D-04 DE=-1.66D-05 OVMax= 7.04D-04

 Cycle   6  Pass 1  IDiag  1:
 E= -79.8103557345897     Delta-E=       -0.000005096321 Rises=F Damp=F
 DIIS: error= 1.53D-05 at cycle   6 NSaved=   6.
 NSaved= 6 IEnMin= 6 EnMin= -79.8103557345897     IErMin= 6 ErrMin= 1.53D-05
 ErrMax= 1.53D-05 EMaxC= 1.00D-01 BMatC= 1.95D-08 BMatP= 5.18D-06
 IDIUse=1 WtCom= 1.00D+00 WtEn= 0.00D+00
 Coeff-Com:  0.189D-03-0.601D-03 0.627D-02 0.339D-01 0.738D-01 0.886D+00
 Coeff:      0.189D-03-0.601D-03 0.627D-02 0.339D-01 0.738D-01 0.886D+00
 Gap=     0.339 Goal=   None    Shift=    0.000
 RMSDP=2.70D-06 MaxDP=3.74D-05 DE=-5.10D-06 OVMax= 5.56D-05

 Cycle   7  Pass 1  IDiag  1:
 E= -79.8103557551836     Delta-E=       -0.000000020594 Rises=F Damp=F
 DIIS: error= 3.27D-06 at cycle   7 NSaved=   7.
 NSaved= 7 IEnMin= 7 EnMin= -79.8103557551836     IErMin= 7 ErrMin= 3.27D-06
 ErrMax= 3.27D-06 EMaxC= 1.00D-01 BMatC= 1.08D-09 BMatP= 1.95D-08
 IDIUse=1 WtCom= 1.00D+00 WtEn= 0.00D+00
 Coeff-Com:  0.752D-04-0.105D-03-0.151D-02-0.500D-02 0.480D-02 0.277D+00
 Coeff-Com:  0.724D+00
 Coeff:      0.752D-04-0.105D-03-0.151D-02-0.500D-02 0.480D-02 0.277D+00
 Coeff:      0.724D+00
 Gap=     0.339 Goal=   None    Shift=    0.000
 RMSDP=7.32D-07 MaxDP=7.08D-06 DE=-2.06D-08 OVMax= 1.28D-05

 Cycle   8  Pass 1  IDiag  1:
 E= -79.8103557564419     Delta-E=       -0.000000001258 Rises=F Damp=F
 DIIS: error= 2.47D-07 at cycle   8 NSaved=   8.
 NSaved= 8 IEnMin= 8 EnMin= -79.8103557564419     IErMin= 8 ErrMin= 2.47D-07
 ErrMax= 2.47D-07 EMaxC= 1.00D-01 BMatC= 6.27D-12 BMatP= 1.08D-09
 IDIUse=1 WtCom= 1.00D+00 WtEn= 0.00D+00
 Coeff-Com:  0.272D-05-0.150D-05-0.256D-03-0.982D-03-0.931D-03 0.136D-01
 Coeff-Com:  0.849D-01 0.904D+00
 Coeff:      0.272D-05-0.150D-05-0.256D-03-0.982D-03-0.931D-03 0.136D-01
 Coeff:      0.849D-01 0.904D+00
 Gap=     0.339 Goal=   None    Shift=    0.000
 RMSDP=7.23D-08 MaxDP=8.98D-07 DE=-1.26D-09 OVMax= 1.41D-06

 Cycle   9  Pass 1  IDiag  1:
 E= -79.8103557564497     Delta-E=       -0.000000000008 Rises=F Damp=F
 DIIS: error= 3.31D-08 at cycle   9 NSaved=   9.
 NSaved= 9 IEnMin= 9 EnMin= -79.8103557564497     IErMin= 9 ErrMin= 3.31D-08
 ErrMax= 3.31D-08 EMaxC= 1.00D-01 BMatC= 1.54D-13 BMatP= 6.27D-12
 IDIUse=1 WtCom= 1.00D+00 WtEn= 0.00D+00
 Coeff-Com: -0.858D-06 0.965D-06-0.250D-04-0.102D-03-0.201D-03-0.154D-02
 Coeff-Com:  0.603D-02 0.171D+00 0.825D+00
 Coeff:     -0.858D-06 0.965D-06-0.250D-04-0.102D-03-0.201D-03-0.154D-02
 Coeff:      0.603D-02 0.171D+00 0.825D+00
 Gap=     0.339 Goal=   None    Shift=    0.000
 RMSDP=1.12D-08 MaxDP=1.08D-07 DE=-7.82D-12 OVMax= 1.65D-07

 Cycle  10  Pass 1  IDiag  1:
 E= -79.8103557564500     Delta-E=       -0.000000000000 Rises=F Damp=F
 DIIS: error= 5.77D-09 at cycle  10 NSaved=  10.
 NSaved=10 IEnMin=10 EnMin= -79.8103557564500     IErMin=10 ErrMin= 5.77D-09
 ErrMax= 5.77D-09 EMaxC= 1.00D-01 BMatC= 2.94D-15 BMatP= 1.54D-13
 IDIUse=1 WtCom= 1.00D+00 WtEn= 0.00D+00
 Coeff-Com: -0.225D-06 0.224D-06-0.168D-06-0.365D-05-0.219D-04-0.569D-03
 Coeff-Com: -0.446D-03 0.155D-01 0.152D+00 0.834D+00
 Coeff:     -0.225D-06 0.224D-06-0.168D-06-0.365D-05-0.219D-04-0.569D-03
 Coeff:     -0.446D-03 0.155D-01 0.152D+00 0.834D+00
 Gap=     0.339 Goal=   None    Shift=    0.000
 RMSDP=1.38D-09 MaxDP=1.21D-08 DE=-3.55D-13 OVMax= 2.09D-08

 SCF Done:  E(RB3LYP) =  -79.8103557565     A.U. after   10 cycles
             Convg  =    0.1378D-08             -V/T =  2.0111
 KE= 7.893471530617D+01 PE=-2.673229031766D+02 EE= 6.673337154715D+01
 Leave Link  502 at Wed May 26 19:15:31 2021, MaxMem=   13107200 cpu:       6.7
 (Enter /programs/64bit/g09/g09-gfortran/bin/l601.exe)
 Copying SCF densities to generalized density rwf, IOpCl= 0 IROHF=0.

 **********************************************************************

            Population analysis using the SCF density.

 **********************************************************************

 Alpha  occ. eigenvalues --  -10.18744 -10.18041  -0.75575  -0.62091  -0.44707
 Alpha  occ. eigenvalues --   -0.42769  -0.37621  -0.33899  -0.32464
 Alpha virt. eigenvalues --    0.01429   0.02691   0.05262   0.05569   0.07881
 Alpha virt. eigenvalues --    0.08837   0.09050   0.13731   0.14406   0.18554
 Alpha virt. eigenvalues --    0.21648   0.23953   0.25030   0.28551   0.32751
 Alpha virt. eigenvalues --    0.63659   0.63891   0.65313   0.66829   0.69327
 Alpha virt. eigenvalues --    0.69773   0.88877   0.91641   0.94584   0.96934
 Alpha virt. eigenvalues --    1.04717   1.09752   1.10822   1.26152   1.35759
 Alpha virt. eigenvalues --    1.37083   1.62129   1.76995   1.81552   1.96427
 Alpha virt. eigenvalues --    2.04498   2.06357   2.12101   2.12239   2.20208
 Alpha virt. eigenvalues --    2.24107   2.29993   2.36486   2.45285   2.51428
 Alpha virt. eigenvalues --    2.65819   2.74953   2.77234   2.80603   2.87425
 Alpha virt. eigenvalues --    2.95633   3.18993   3.29252   3.40023   3.41825
 Alpha virt. eigenvalues --    3.50132   3.55165   4.34207   4.60564
          Condensed to atoms (all electrons):
              1          2          3          4          5          6
     1  C    5.165112   0.221848   0.377360   0.418633   0.402489  -0.057120
     2  C    0.221848   5.125738  -0.003601  -0.085708  -0.033600   0.409894
     3  H    0.377360  -0.003601   0.546168  -0.036791  -0.033466   0.003857
     4  H    0.418633  -0.085708  -0.036791   0.620071  -0.033049  -0.004795
     5  H    0.402489  -0.033600  -0.033466  -0.033049   0.553290  -0.009924
     6  H   -0.057120   0.409894   0.003857  -0.004795  -0.009924   0.572972
     7  H   -0.075565   0.439323  -0.000443  -0.016800   0.004557  -0.041319
     8  H   -0.023042   0.385407  -0.002802   0.006153  -0.000040  -0.025840
              7          8
     1  C   -0.075565  -0.023042
     2  C    0.439323   0.385407
     3  H   -0.000443  -0.002802
     4  H   -0.016800   0.006153
     5  H    0.004557  -0.000040
     6  H   -0.041319  -0.025840
     7  H    0.557865  -0.021438
     8  H   -0.021438   0.530427
 Mulliken atomic charges:
              1
     1  C   -0.429716
     2  C   -0.459302
     3  H    0.149719
     4  H    0.132286
     5  H    0.149744
     6  H    0.152274
     7  H    0.153820
     8  H    0.151175
 Sum of Mulliken atomic charges =   0.00000
 Mulliken charges with hydrogens summed into heavy atoms:
              1
     1  C    0.002033
     2  C   -0.002033
 Sum of Mulliken charges with hydrogens summed into heavy atoms =   0.00000
 Electronic spatial extent (au):  <R**2>=            150.2631
 Charge=              0.0000 electrons
 Dipole moment (field-independent basis, Debye):
    X=             -0.1952    Y=             -0.2330    Z=              0.0513  Tot=              0.3083
 Quadrupole moment (field-independent basis, Debye-Ang):
   XX=            -15.4181   YY=            -15.1934   ZZ=            -15.3773
   XY=              0.0113   XZ=             -0.2648   YZ=             -0.2088
 Traceless Quadrupole moment (field-independent basis, Debye-Ang):
   XX=             -0.0885   YY=              0.1362   ZZ=             -0.0477
   XY=              0.0113   XZ=             -0.2648   YZ=             -0.2088
 Octapole moment (field-independent basis, Debye-Ang**2):
  XXX=              0.8889  YYY=              1.2587  ZZZ=            -36.7825  XYY=              0.7648
  XXY=              0.9262  XXZ=            -12.0568  XZZ=              0.8015  YZZ=              1.0003
  YYZ=            -10.4952  XYZ=              0.6899
 Hexadecapole moment (field-independent basis, Debye-Ang**3):
 XXXX=            -31.1434 YYYY=            -31.2560 ZZZZ=           -157.9348 XXXY=             -0.3790
 XXXZ=              0.3099 YYYX=              0.0542 YYYZ=              0.1702 ZZZX=              1.8801
 ZZZY=              1.8661 XXYY=            -10.8302 XXZZ=            -30.5509 YYZZ=            -29.0704
 XXYZ=              0.3972 YYXZ=              1.3385 ZZXY=              0.9634
 N-N= 4.184446056682D+01 E-N=-2.673229031456D+02  KE= 7.893471530617D+01
 No NMR shielding tensors so no spin-rotation constants.
 Leave Link  601 at Wed May 26 19:15:32 2021, MaxMem=   13107200 cpu:       0.1
 (Enter /programs/64bit/g09/g09-gfortran/bin/l701.exe)
 Compute integral first derivatives.
 ... and contract with generalized density number  0.
 Leave Link  701 at Wed May 26 19:15:32 2021, MaxMem=   13107200 cpu:       0.1
 (Enter /programs/64bit/g09/g09-gfortran/bin/l702.exe)
 L702 exits ... SP integral derivatives will be done elsewhere.
 Leave Link  702 at Wed May 26 19:15:32 2021, MaxMem=   13107200 cpu:       0.0
 (Enter /programs/64bit/g09/g09-gfortran/bin/l703.exe)
 Compute integral first derivatives, UseDBF=F ICtDFT=           0.
 Integral derivatives from FoFDir, PRISM(SPDF).
 Calling FoFJK, ICntrl=      2127 FMM=F ISym2X=0 I1Cent= 0 IOpClX= 0 NMat=1 NMatS=1 NMatT=0.
 FoFCou: FMM=F IPFlag=           0 FMFlag=      100000 FMFlg1=         800
         NFxFlg=           0 DoJE=F BraDBF=F KetDBF=F FulRan=T
         Omega=  0.000000  0.000000  1.000000  0.000000  0.000000 ICntrl=    2127 IOpCl=  0
         NMat0=    1 NMatS0=    1 NMatT0=    0 NMatD0=    1 NMtDS0=    0 NMtDT0=    0
         I1Cent=           0 NGrid=           0.
 Symmetry not used in FoFCou.
 Leave Link  703 at Wed May 26 19:15:33 2021, MaxMem=   13107200 cpu:       1.5
 (Enter /programs/64bit/g09/g09-gfortran/bin/l716.exe)
 Dipole        =-7.67903839D-02-9.16709473D-02 2.01926257D-02
 -------------------------------------------------------------------
 Center     Atomic                   Forces (Hartrees/Bohr)
 Number     Number              X              Y              Z
 -------------------------------------------------------------------
      1        6          -0.016709318   -0.049908997   -0.006144576
      2        6          -0.018323918    0.005520728   -0.027322615
      3        1           0.013983954    0.013293029    0.019220347
      4        1          -0.004231137    0.005724290   -0.019606114
      5        1          -0.000093610    0.011173627    0.008296179
      6        1           0.002572275    0.009468909    0.009176371
      7        1           0.017983158    0.007111773    0.011267520
      8        1           0.004818595   -0.002383359    0.005112888
 -------------------------------------------------------------------
 Cartesian Forces:  Max     0.049908997 RMS     0.015847606
 -----------------------------------------------------------------------------------------------
                       Internal Coordinate Forces (Hartree/Bohr or radian)
  Cent   Atom   N1       Length/X         N2         Alpha/Y        N3         Beta/Z          J
 -----------------------------------------------------------------------------------------------
      1  C 
      2  C        1  -0.001766(     1)
      3  H        1  -0.002461(     2)      2  -0.049078(     8)
      4  H        1  -0.003849(     3)      2   0.041553(     9)      3   0.011589(    14)     0
      5  H        1   0.001106(     4)      2  -0.020539(    10)      3   0.017691(    15)     0
      6  H        2  -0.000890(     5)      1   0.019660(    11)      3   0.008754(    16)     0
      7  H        2   0.000267(     6)      1   0.023994(    12)      6   0.037910(    17)     0
      8  H        2   0.002774(     7)      1   0.008850(    13)      6  -0.009691(    18)     0
 -----------------------------------------------------------------------------------------------
 Internal  Forces:  Max     0.049077611 RMS     0.020664583
 Force constants in Cartesian coordinates: 
                1             2             3             4             5 
      1  0.625572D+00
      2 -0.331423D-01  0.560271D+00
      3 -0.287008D-01 -0.426132D-01  0.695241D+00
      4 -0.981032D-01 -0.163092D-02  0.637340D-02  0.613001D+00
      5 -0.170100D-02 -0.874201D-01  0.119563D-01  0.479392D-01  0.706075D+00
      6 -0.743561D-02 -0.420211D-02 -0.260827D+00  0.491794D-01  0.401429D-01
      7 -0.220537D+00  0.455307D-02  0.112316D+00  0.177903D-01  0.689589D-03
      8  0.172091D-01 -0.721671D-01 -0.685702D-02  0.102710D-02  0.576542D-02
      9  0.131052D+00  0.506019D-02 -0.213630D+00  0.197718D-01  0.766395D-03
     10 -0.760919D-01 -0.671044D-01 -0.457459D-03  0.345713D-03 -0.548644D-04
     11 -0.623535D-01 -0.304326D+00 -0.864996D-02  0.126938D-03  0.872863D-03
     12 -0.423570D-02 -0.245169D-01 -0.679467D-01 -0.622827D-02 -0.249136D-01
     13 -0.242218D+00  0.941505D-01 -0.895311D-01  0.994555D-02 -0.306397D-02
     14  0.768220D-01 -0.113107D+00  0.461639D-01 -0.361945D-02  0.754377D-02
     15 -0.981157D-01  0.620699D-01 -0.152837D+00 -0.199169D-01  0.121909D-01
     16  0.434558D-02 -0.623368D-04  0.000000D+00 -0.328279D+00  0.124940D-02
     17 -0.276223D-03  0.189033D-03  0.000000D+00 -0.476186D-02 -0.753469D-01
     18  0.256284D-01 -0.380538D-03  0.000000D+00  0.511468D-01 -0.108724D-01
     19  0.211907D-02 -0.140292D-02  0.000000D+00 -0.835976D-01  0.392674D-01
     20 -0.125793D-02  0.684699D-02  0.000000D+00  0.506313D-01 -0.317041D+00
     21 -0.597629D-02  0.245847D-01  0.000000D+00 -0.328522D-01  0.718034D-01
     22  0.491324D-02  0.463927D-02  0.000000D+00 -0.131102D+00 -0.843257D-01
     23  0.469972D-02  0.971301D-02  0.000000D+00 -0.897123D-01 -0.240449D+00
     24 -0.122165D-01 -0.200020D-01  0.000000D+00 -0.674739D-01 -0.101074D+00
                6             7             8             9            10 
      6  0.583133D+00
      7  0.000000D+00  0.217827D+00
      8  0.000000D+00 -0.436800D-02  0.526996D-01
      9  0.000000D+00 -0.134064D+00 -0.485450D-02  0.189460D+00
     10  0.000000D+00 -0.308993D-02 -0.259605D-01 -0.343409D-02  0.656143D-01
     11  0.000000D+00  0.670850D-03  0.574952D-02  0.745569D-03  0.651731D-01
     12  0.000000D+00  0.330098D-02  0.244482D-01  0.366864D-02 -0.374105D-03
     13  0.000000D+00 -0.119907D-01  0.121072D-01 -0.133262D-01  0.132324D-01
     14  0.000000D+00 -0.154551D-02  0.781312D-02 -0.171765D-02  0.278476D-01
     15  0.000000D+00  0.184467D-01 -0.127367D-01  0.205013D-01  0.426565D-02
     16  0.447655D-01  0.000000D+00  0.860371D-05  0.000000D+00  0.611849D-05
     17 -0.972982D-02  0.000000D+00  0.727246D-03  0.000000D+00  0.517178D-03
     18 -0.724143D-01  0.000000D+00  0.000000D+00  0.000000D+00  0.000000D+00
     19 -0.279715D-01  0.000000D+00 -0.732631D-03  0.000000D+00 -0.521008D-03
     20  0.656979D-01  0.000000D+00 -0.167497D-03  0.000000D+00 -0.119115D-03
     21 -0.996810D-01  0.000000D+00  0.000000D+00  0.000000D+00  0.000000D+00
     22 -0.585378D-01  0.000000D+00  0.709183D-03  0.000000D+00  0.504333D-03
     23 -0.919089D-01  0.000000D+00 -0.420318D-03  0.000000D+00 -0.298908D-03
     24 -0.150210D+00  0.000000D+00  0.000000D+00  0.000000D+00  0.000000D+00
               11            12            13            14            15 
     11  0.305349D+00
     12  0.907292D-02  0.618036D-01
     13 -0.362008D-02  0.753709D-02  0.231025D+00
     14 -0.762010D-02  0.159094D-01 -0.995156D-01  0.105473D+00
     15 -0.116853D-02  0.247448D-02  0.953203D-01 -0.603556D-01  0.129862D+00
     16 -0.155373D-05  0.000000D+00 -0.358232D-05 -0.631294D-05  0.000000D+00
     17 -0.131332D-03  0.000000D+00 -0.302803D-03 -0.533614D-03  0.000000D+00
     18  0.000000D+00  0.000000D+00  0.000000D+00  0.000000D+00  0.000000D+00
     19  0.132305D-03  0.000000D+00  0.305046D-03  0.537565D-03  0.000000D+00
     20  0.302480D-04  0.000000D+00  0.697408D-04  0.122901D-03  0.000000D+00
     21  0.000000D+00  0.000000D+00  0.000000D+00  0.000000D+00  0.000000D+00
     22 -0.128070D-03  0.000000D+00 -0.295283D-03 -0.520361D-03  0.000000D+00
     23  0.759045D-04  0.000000D+00  0.175008D-03  0.308407D-03  0.000000D+00
     24  0.000000D+00  0.000000D+00  0.000000D+00  0.000000D+00  0.000000D+00
               16            17            18            19            20 
     16  0.328957D+00
     17 -0.212502D-02  0.601154D-01
     18 -0.466716D-01  0.677425D-02  0.613877D-01
     19 -0.149078D-02  0.341963D-01 -0.111695D-01  0.695991D-01
     20 -0.222767D-03  0.554034D-02 -0.169906D-02 -0.558067D-01  0.313338D+00
     21  0.404939D-03 -0.781249D-02  0.293104D-02  0.260781D-01 -0.715352D-01
     22 -0.353526D-02 -0.272475D-01 -0.189341D-01  0.135861D-01  0.670547D-02
     23  0.115998D-02  0.943982D-02  0.617779D-02 -0.161913D-01 -0.866987D-02
     24  0.150111D-02  0.107681D-01  0.809551D-02  0.130629D-01  0.753639D-02
               21            22            23            24 
     21  0.811442D-01
     22  0.123454D-01  0.115929D+00
     23 -0.170403D-01  0.100168D+00  0.230002D+00
     24  0.156057D-01  0.651265D-01  0.102771D+00  0.126509D+00
 Force constants in internal coordinates: 
                1             2             3             4             5 
      1  0.260827D+00
      2  0.000000D+00  0.338456D+00
      3  0.000000D+00  0.000000D+00  0.322212D+00
      4  0.000000D+00  0.000000D+00  0.000000D+00  0.344924D+00
      5  0.000000D+00  0.000000D+00  0.000000D+00  0.000000D+00  0.336902D+00
      6  0.000000D+00  0.000000D+00  0.000000D+00  0.000000D+00  0.000000D+00
      7  0.000000D+00  0.000000D+00  0.000000D+00  0.000000D+00  0.000000D+00
      8  0.000000D+00  0.000000D+00  0.000000D+00  0.000000D+00  0.000000D+00
      9  0.000000D+00  0.000000D+00  0.000000D+00  0.000000D+00  0.000000D+00
     10  0.000000D+00  0.000000D+00  0.000000D+00  0.000000D+00  0.000000D+00
     11  0.000000D+00  0.000000D+00  0.000000D+00  0.000000D+00  0.000000D+00
     12  0.000000D+00  0.000000D+00  0.000000D+00  0.000000D+00  0.000000D+00
     13  0.000000D+00  0.000000D+00  0.000000D+00  0.000000D+00  0.000000D+00
     14  0.000000D+00  0.000000D+00  0.000000D+00  0.000000D+00  0.000000D+00
     15  0.000000D+00  0.000000D+00  0.000000D+00  0.000000D+00  0.000000D+00
     16  0.000000D+00  0.000000D+00  0.000000D+00  0.000000D+00  0.000000D+00
     17  0.000000D+00  0.000000D+00  0.000000D+00  0.000000D+00  0.000000D+00
     18  0.000000D+00  0.000000D+00  0.000000D+00  0.000000D+00  0.000000D+00
                6             7             8             9            10 
      6  0.346953D+00
      7  0.000000D+00  0.353403D+00
      8  0.000000D+00  0.000000D+00  0.296625D+00
      9  0.000000D+00  0.000000D+00  0.215715D-01  0.272412D+00
     10  0.000000D+00  0.000000D+00  0.133475D+00  0.121471D-01  0.301984D+00
     11  0.000000D+00  0.000000D+00  0.000000D+00  0.000000D+00  0.000000D+00
     12  0.000000D+00  0.000000D+00  0.000000D+00  0.000000D+00  0.000000D+00
     13  0.000000D+00  0.000000D+00  0.000000D+00  0.000000D+00  0.000000D+00
     14  0.000000D+00  0.000000D+00 -0.206271D-01 -0.114951D-01  0.216833D-01
     15  0.000000D+00  0.000000D+00  0.412262D-01 -0.676189D-01  0.232382D-01
     16  0.000000D+00  0.000000D+00  0.000000D+00  0.000000D+00  0.000000D+00
     17  0.000000D+00  0.000000D+00  0.000000D+00  0.000000D+00  0.000000D+00
     18  0.000000D+00  0.000000D+00  0.000000D+00  0.000000D+00  0.000000D+00
               11            12            13            14            15 
     11  0.230950D+00
     12  0.132449D-01  0.253648D+00
     13  0.397219D-01  0.778473D-01  0.258027D+00
     14  0.000000D+00  0.000000D+00  0.000000D+00  0.216944D+00
     15  0.000000D+00  0.000000D+00  0.000000D+00 -0.122630D+00  0.169375D+00
     16  0.100646D-03 -0.237942D-03 -0.170147D-03  0.690000D-02  0.690000D-02
     17 -0.471091D-01  0.402918D-01  0.665281D-01  0.230000D-02  0.230000D-02
     18  0.740900D-01 -0.748216D-01 -0.152606D-01  0.230000D-02  0.230000D-02
               16            17            18 
     16  0.208397D-01
     17  0.771152D-02  0.225975D+00
     18  0.596980D-02 -0.778474D-01  0.188644D+00
 Leave Link  716 at Wed May 26 19:15:33 2021, MaxMem=   13107200 cpu:       0.0
 (Enter /programs/64bit/g09/g09-gfortran/bin/l103.exe)

 GradGradGradGradGradGradGradGradGradGradGradGradGradGradGradGradGradGrad
 Berny optimization.
 Search for a local minimum.
 Step number   1 out of a maximum of    2
 All quantities printed in internal units (Hartrees-Bohrs-Radians)
 Second derivative matrix not updated -- first step.
 The second derivative matrix:
                          d1        a1        t1        d2        a2
           d1           0.26083
           a1           0.00000   0.29662
           t1           0.00000  -0.02063   0.21694
           d2           0.00000  -0.00000  -0.00000   0.33846
           a2           0.00000   0.02157  -0.01150   0.00000   0.27241
           t2          -0.00000   0.04123  -0.12263   0.00000  -0.06762
           d3          -0.00000   0.00000  -0.00000  -0.00000   0.00000
           d4           0.00000   0.00000  -0.00000  -0.00000   0.00000
           a3          -0.00000   0.13347   0.02168   0.00000   0.01215
           d5          -0.00000   0.00000  -0.00000   0.00000  -0.00000
           a4          -0.00000   0.00000   0.00000   0.00000   0.00000
           t3           0.00000   0.00000   0.00690   0.00000   0.00000
           d6          -0.00000   0.00000   0.00000   0.00000   0.00000
           a5          -0.00000   0.00000  -0.00000   0.00000  -0.00000
           t4          -0.00000   0.00000   0.00230   0.00000  -0.00000
           d7          -0.00000   0.00000   0.00000   0.00000   0.00000
           a6           0.00000   0.00000  -0.00000   0.00000  -0.00000
           t5           0.00000   0.00000   0.00230   0.00000  -0.00000
                          t2        d3        d4        a3        d5
           t2           0.16937
           d3          -0.00000   0.32221
           d4          -0.00000   0.00000   0.34492
           a3           0.02324   0.00000  -0.00000   0.30198
           d5          -0.00000   0.00000  -0.00000   0.00000   0.33690
           a4           0.00000  -0.00000   0.00000   0.00000   0.00000
           t3           0.00690  -0.00000   0.00000  -0.00000   0.00000
           d6           0.00000   0.00000  -0.00000   0.00000   0.00000
           a5          -0.00000  -0.00000   0.00000  -0.00000  -0.00000
           t4           0.00230   0.00000   0.00000  -0.00000  -0.00000
           d7           0.00000  -0.00000   0.00000  -0.00000  -0.00000
           a6          -0.00000   0.00000  -0.00000   0.00000   0.00000
           t5           0.00230   0.00000   0.00000  -0.00000   0.00000
                          a4        t3        d6        a5        t4
           a4           0.23095
           t3           0.00010   0.02084
           d6          -0.00000  -0.00000   0.34695
           a5           0.01324  -0.00024  -0.00000   0.25365
           t4          -0.04711   0.00771  -0.00000   0.04029   0.22598
           d7           0.00000  -0.00000  -0.00000  -0.00000   0.00000
           a6           0.03972  -0.00017   0.00000   0.07785   0.06653
           t5           0.07409   0.00597   0.00000  -0.07482  -0.07785
                          d7        a6        t5
           d7           0.35340
           a6           0.00000   0.25803
           t5          -0.00000  -0.01526   0.18864
     Eigenvalues --- 1000.000001000.000001000.000001000.000001000.00000
     Eigenvalues --- 1000.000001000.000001000.000001000.000001000.00000
     Eigenvalues --- 1000.000001000.000001000.000001000.000001000.00000
     Eigenvalues --- 1000.000001000.000001000.00000
 Angle between quadratic step and forces=  90.00 degrees.
 Linear search not attempted -- first point.
 Variable       Old X    -DE/DX   Delta X   Delta X   Delta X     New X
                                 (Linear)    (Quad)   (Total)
    d1        2.96532  -0.00177   0.00000   0.00000   0.00000   2.96532
    a1        2.30349  -0.04908   0.00000   0.00000   0.00000   2.30349
    t1        1.81948   0.01159   0.00000   0.00000   0.00000   1.81948
    d2        2.07591  -0.00246   0.00000   0.00000   0.00000   2.07591
    a2        1.60420   0.04155   0.00000   0.00000   0.00000   1.60420
    t2       -2.62545   0.01769   0.00000   0.00000   0.00000  -2.62545
    d3        2.10441  -0.00385   0.00000   0.00000   0.00000   2.10441
    d4        2.06507   0.00111   0.00000   0.00000   0.00000   2.06507
    a3        2.05345  -0.02054   0.00000   0.00000   0.00000   2.05345
    d5        2.07856  -0.00089   0.00000   0.00000   0.00000   2.07856
    a4        1.73887   0.01966   0.00000   0.00000   0.00000   1.73887
    t3        3.12976   0.00875   0.00000   0.00000   0.00000   3.12976
    d6        2.06172   0.00027   0.00000   0.00000   0.00000   2.06172
    a5        1.84771   0.02399   0.00000   0.00000   0.00000   1.84771
    t4        1.80739   0.03791   0.00000   0.00000   0.00000   1.80739
    d7        2.05126   0.00277   0.00000   0.00000   0.00000   2.05126
    a6        2.06283   0.00885   0.00000   0.00000   0.00000   2.06283
    t5       -2.09399  -0.00969   0.00000   0.00000   0.00000  -2.09399
         Item               Value     Threshold  Converged?
 Maximum Force            0.000000     0.000450     YES
 RMS     Force            0.000000     0.000300     YES
 Maximum Displacement     0.000000     0.001800     YES
 RMS     Displacement     0.000000     0.001200     YES
 Predicted change in Energy=-0.000000D+00
 Optimization completed.
    -- Stationary point found.
                       ----------------------------
                       !   Optimized Parameters   !
                       ! (Angstroms and Degrees)  !
 ----------------------                            ----------------------
 !      Name          Value   Derivative information (Atomic Units)     !
 ------------------------------------------------------------------------
 !       d1          1.5692   -DE/DX =   -0.0018                        !
 !       a1        131.9803   -DE/DX =   -0.0491                        !
 !       t1        104.2485   -DE/DX =    0.0116                        !
 !       d2          1.0985   -DE/DX =   -0.0025                        !
 !       a2         91.9139   -DE/DX =    0.0416                        !
 !       t2       -150.4269   -DE/DX =    0.0177                        !
 !       d3          1.1136   -DE/DX =   -0.0038                        !
 !       d4          1.0928   -DE/DX =    0.0011                        !
 !       a3        117.654    -DE/DX =   -0.0205                        !
 !       d5          1.0999   -DE/DX =   -0.0009                        !
 !       a4         99.6301   -DE/DX =    0.0197                        !
 !       t3        179.3222   -DE/DX =    0.0088                        !
 !       d6          1.091    -DE/DX =    0.0003                        !
 !       a5        105.8662   -DE/DX =    0.024                         !
 !       t4        103.5557   -DE/DX =    0.0379                        !
 !       d7          1.0855   -DE/DX =    0.0028                        !
 !       a6        118.1913   -DE/DX =    0.0088                        !
 !       t5       -119.9765   -DE/DX =   -0.0097                        !
 ------------------------------------------------------------------------
 GradGradGradGradGradGradGradGradGradGradGradGradGradGradGradGradGradGrad

 Leave Link  103 at Wed May 26 19:15:33 2021, MaxMem=   13107200 cpu:       0.0
 (Enter /programs/64bit/g09/g09-gfortran/bin/l9999.exe)
 1\1\GINC-MOLMOD\Force\RB3LYP\6-31+G(d,p)\C2H6\OSPITE\26-May-2021\1\\#p
  b3lyp/6-31+g(d,p) force nosym\\c2h6 molecule\\0,1\C\C,1,d1\H,1,d2,2,a
 1\H,1,d3,2,a2,3,t1,0\H,1,d4,2,a3,3,t2,0\H,2,d5,1,a4,3,t3,0\H,2,d6,1,a5
 ,6,t4,0\H,2,d7,1,a6,6,t5,0\\d1=1.56918021\a1=131.98034937\t1=104.24848
 698\d2=1.09852678\a2=91.91387033\t2=-150.42692889\d3=1.11360637\d4=1.0
 9278847\a3=117.65402613\d5=1.09992703\a4=99.63006006\t3=179.32219165\d
 6=1.09101779\a5=105.86619454\t4=103.55569134\d7=1.08547935\a6=118.1912
 7535\t5=-119.97652412\\Version=EM64L-G09RevA.02\HF=-79.8103558\RMSD=1.
 378e-09\RMSF=1.585e-02\Dipole=-0.0767904,-0.0916709,0.0201926\Quadrupo
 le=-0.0658236,0.1012849,-0.0354613,0.0083823,-0.1968728,-0.1552152\PG=
 C01 [X(C2H6)]\\@


                                                                                    A
                                                                                  AA
                                                                                 AAA
                                                                                AAAA
                                                                               AAAAA
                                                                              AAAAAA   KKKKKKKK
                                                                             AAAAAAA   KKKKKKKK
                                                                            AAAAAAAA   KKKKKKKK
                                       ZZZZZZZZZZZZZZZZZZZZ                AAAA  AAA   KKKKKKKK
                                       ZZZZZZZZZZZZZZZZZZZ                AAAA   AAA   KKKKKKKK          K
                                       ZZZZZZZZZZZZZZZZZZ                AAAA    AAA   KKKKKKKK         KKK
                                       ZZZZZZZZZZZZZZZZZ                AAAA     AAA   KKKKKKKK        KKKKK
                                       ZZZZZZZZZZZZZZZZ                AAAA      AAA   KKKKKKKK       KKKKKKK
                                                ZZZZZZ                AAAA       AAA   KKKKKKKK      KKKKKKK
                                               ZZZZZZ                AAAA        AAA   KKKKKKKK     KKKKKKK
                                              ZZZZZZ                AAAA         AAA   KKKKKKKK    KKKKKKK
                                             ZZZZZZ                AAAA          AAA   KKKKKKKK   KKKKKKK
                                            ZZZZZZ                AAAAAAAAAAAAAAAAAA   KKKKKKKK  KKKKKKK
                                           ZZZZZZ                AAAAAAAAAAAAAAAAAAA   KKKKKKKK KKKKKKK
                                          ZZZZZZ                AAAAAAAAAAAAAAAAAAAA   KKKKKKKKKKKKKKK
                                         ZZZZZZ                AAAAAAAAAAAAAAAAAAAAA   KKKKKKKKKKKKKK
                                        ZZZZZZ                AAAAAA        AAAAAAAA   KKKKKKKKKKKKK
                                       ZZZZZZ                AAAAAA         AAAAAAAA   KKKKKKKKKKKK
                                      ZZZZZZ                AAAAAA          AAAAAAAA   KKKKKKKKKKK
                                     ZZZZZZ                AAAAAA           AAAAAAAA   KKKKKKKKKKKK
                                    ZZZZZZ                AAAAAA            AAAAAAAA   KKKKKKKKKKKKK
                                   ZZZZZZ                AAAAAA             AAAAAAAA   KKKKKKKKKKKKKK
                                  ZZZZZZ                AAAAAA              AAAAAAAA   KKKKKKKKKKKKKKK
                                 ZZZZZZ                AAAAAA               AAAAAAAA   KKKKK KKKKKKKKKK
                                ZZZZZZ                AAAAAA                AAAAAAAA   KKKKK  KKKKKKKKKK
                               ZZZZZZ                AAAAAA                            KKKKK   KKKKKKKKKK
                              ZZZZZZ                AAAAAA                             KKKKK    KKKKKKKKKK
                             ZZZZZZ                                                    KKKKK     KKKKKKKKKK
                            ZZZZZZ                                                     KKKKK      KKKKKKKKKK
                           ZZZZZZ                                                      KKKKK       KKKKKKKKKK
                          ZZZZZZ                                                       KKKKK        KKKKKKKKKK
                         ZZZZZZZZZZZZZZZZZZZZZZZZZZZZZZZZZZZZZZZZ                      KKKKK         KKKKKKKKKK
                        ZZZZZZZZZZZZZZZZZZZZZZZZZZZZZZZZZZZZZZZZZ                      KKKKK          KKKKKKKKKK
                       ZZZZZZZZZZZZZZZZZZZZZZZZZZZZZZZZZZZZZZZZZZ                      KKKKK           KKKKKKKKKK
                       ZZZZZZZZZZZZZZZZZZZZZZZZZZZZZZZZZZZZZZZZZZ                      KKKKK            KKKKKKKKKK
                       ZZZZZZZZZZZZZZZZZZZZZZZZZZZZZZZZZZZZZZZZZZ                      KKKKK             KKKKKKKKKK
                       ZZZZZZZZZZZZZZZZZZZZZZZZZZZZZZZZZZZZZZZZZZ                      KKKKK              KKKKKKKKKK
                       ZZZZZZZZZZZZZZZZZZZZZZZZZZZZZZZZZZZZZZZZZZ                      KKKKK               KKKKKKKKKK
                       ZZZZZZZZZZZZZZZZZZZZZZZZZZZZZZZZZZZZZZZZZZ                      KKKKK                KKKKKKKKKK
                       ZZZZZZZZZZZZZZZZZZZZZZZZZZZZZZZZZZZZZZZZZZ                      KKKKK
                                                                                       KKKKK
                                                                                          (J.P.)
 Job cpu time:  0 days  0 hours  0 minutes  9.3 seconds.
 File lengths (MBytes):  RWF=      5 Int=      0 D2E=      0 Chk=      1 Scr=      1
 Normal termination of Gaussian 09 at Wed May 26 19:15:33 2021.
