 Entering Gaussian System, Link 0=g09
 Input=c2h6_019.com
 Output=c2h6_019.log
 Initial command:
 /programs/64bit/g09/g09-gfortran/bin/l1.exe /data/scratch/Gau-6324.inp -scrdir=/data/scratch/
 Entering Link 1 = /programs/64bit/g09/g09-gfortran/bin/l1.exe PID=      6325.
  
 Copyright (c) 1988,1990,1992,1993,1995,1998,2003,2009, Gaussian, Inc.
                  All Rights Reserved.
  
 This is part of the Gaussian(R) 09 program.  It is based on
 the Gaussian(R) 03 system (copyright 2003, Gaussian, Inc.),
 the Gaussian(R) 98 system (copyright 1998, Gaussian, Inc.),
 the Gaussian(R) 94 system (copyright 1995, Gaussian, Inc.),
 the Gaussian 92(TM) system (copyright 1992, Gaussian, Inc.),
 the Gaussian 90(TM) system (copyright 1990, Gaussian, Inc.),
 the Gaussian 88(TM) system (copyright 1988, Gaussian, Inc.),
 the Gaussian 86(TM) system (copyright 1986, Carnegie Mellon
 University), and the Gaussian 82(TM) system (copyright 1983,
 Carnegie Mellon University). Gaussian is a federally registered
 trademark of Gaussian, Inc.
  
 This software contains proprietary and confidential information,
 including trade secrets, belonging to Gaussian, Inc.
  
 This software is provided under written license and may be
 used, copied, transmitted, or stored only in accord with that
 written license.
  
 The following legend is applicable only to US Government
 contracts under FAR:
  
                    RESTRICTED RIGHTS LEGEND
  
 Use, reproduction and disclosure by the US Government is
 subject to restrictions as set forth in subparagraphs (a)
 and (c) of the Commercial Computer Software - Restricted
 Rights clause in FAR 52.227-19.
  
 Gaussian, Inc.
 340 Quinnipiac St., Bldg. 40, Wallingford CT 06492
  
  
 ---------------------------------------------------------------
 Warning -- This program may not be used in any manner that
 competes with the business of Gaussian, Inc. or will provide
 assistance to any competitor of Gaussian, Inc.  The licensee
 of this program is prohibited from giving any competitor of
 Gaussian, Inc. access to this program.  By using this program,
 the user acknowledges that Gaussian, Inc. is engaged in the
 business of creating and licensing software in the field of
 computational chemistry and represents and warrants to the
 licensee that it is not a competitor of Gaussian, Inc. and that
 it will not use this program in any manner prohibited above.
 ---------------------------------------------------------------
  

 Cite this work as:
 Gaussian 09, Revision A.02,
 M. J. Frisch, G. W. Trucks, H. B. Schlegel, G. E. Scuseria, 
 M. A. Robb, J. R. Cheeseman, G. Scalmani, V. Barone, B. Mennucci, 
 G. A. Petersson, H. Nakatsuji, M. Caricato, X. Li, H. P. Hratchian, 
 A. F. Izmaylov, J. Bloino, G. Zheng, J. L. Sonnenberg, M. Hada, 
 M. Ehara, K. Toyota, R. Fukuda, J. Hasegawa, M. Ishida, T. Nakajima, 
 Y. Honda, O. Kitao, H. Nakai, T. Vreven, J. A. Montgomery, Jr., 
 J. E. Peralta, F. Ogliaro, M. Bearpark, J. J. Heyd, E. Brothers, 
 K. N. Kudin, V. N. Staroverov, R. Kobayashi, J. Normand, 
 K. Raghavachari, A. Rendell, J. C. Burant, S. S. Iyengar, J. Tomasi, 
 M. Cossi, N. Rega, J. M. Millam, M. Klene, J. E. Knox, J. B. Cross, 
 V. Bakken, C. Adamo, J. Jaramillo, R. Gomperts, R. E. Stratmann, 
 O. Yazyev, A. J. Austin, R. Cammi, C. Pomelli, J. W. Ochterski, 
 R. L. Martin, K. Morokuma, V. G. Zakrzewski, G. A. Voth, 
 P. Salvador, J. J. Dannenberg, S. Dapprich, A. D. Daniels, 
 O. Farkas, J. B. Foresman, J. V. Ortiz, J. Cioslowski, 
 and D. J. Fox, Gaussian, Inc., Wallingford CT, 2009.
 
 ******************************************
 Gaussian 09:  EM64L-G09RevA.02 11-Jun-2009
                26-May-2021 
 ******************************************
 %chk=c2h6_019.chk
 %mem=100MB
 --------------------------------
 #p b3lyp/6-31+g(d,p) force nosym
 --------------------------------
 1/10=7,30=1,38=1/1,3;
 2/12=2,15=1,17=6,18=5,40=1/2;
 3/5=1,6=6,7=111,11=2,16=1,25=1,30=1,71=1,74=-5/1,2,3;
 4//1;
 5/5=2,38=5/2;
 6/7=2,8=2,9=2,10=2,28=1/1;
 7/29=1,30=1/1,2,3,16;
 1/10=7,30=1/3;
 99//99;
 Leave Link    1 at Wed May 26 19:10:57 2021, MaxMem=   13107200 cpu:       0.0
 (Enter /programs/64bit/g09/g09-gfortran/bin/l101.exe)
 -------------
 c2h6 molecule
 -------------
 Symbolic Z-matrix:
 Charge =  0 Multiplicity = 1
 C1
 C2                   1    d1
 H3                   1    d2       2    a1
 H4                   1    d3       2    a2       3    t1       0
 H5                   1    d4       2    a3       3    t2       0
 H6                   2    d5       1    a4       3    t3       0
 H7                   2    d6       1    a5       6    t4       0
 H8                   2    d7       1    a6       6    t5       0
       Variables:
       Constants:
  d1                    1.48463                  
  a1                  178.45121                  
  t1                  119.59257                  
  d2                    1.10405                  
  a2                  109.58652                  
  t2                 -178.59023                  
  d3                    1.19437                  
  d4                    1.16434                  
  a3                  108.55043                  
  d5                    1.11469                  
  a4                  108.63799                  
  t3                  179.99704                  
  d6                    1.12457                  
  a5                  108.63976                  
  t4                  120.06449                  
  d7                    1.13588                  
  a6                  178.5852                   
  t5                 -120.                       
 
 NAtoms=      8 NQM=      8 NQMF=      0 NMic=      0 NMicF=      0 NTot=      8.
                    Isotopes and Nuclear Properties:
 (Nuclear quadrupole moments (NQMom) in fm**2, nuclear magnetic moments (NMagM)
  in nuclear magnetons)

  Atom         1           2           3           4           5           6           7           8
 IAtWgt=          12          12           1           1           1           1           1           1
 AtmWgt=  12.0000000  12.0000000   1.0078250   1.0078250   1.0078250   1.0078250   1.0078250   1.0078250
 NucSpn=           0           0           1           1           1           1           1           1
 AtZEff=   0.0000000   0.0000000   0.0000000   0.0000000   0.0000000   0.0000000   0.0000000   0.0000000
 NQMom=    0.0000000   0.0000000   0.0000000   0.0000000   0.0000000   0.0000000   0.0000000   0.0000000
 NMagM=    0.0000000   0.0000000   2.7928460   2.7928460   2.7928460   2.7928460   2.7928460   2.7928460
 Leave Link  101 at Wed May 26 19:10:57 2021, MaxMem=   13107200 cpu:       0.0
 (Enter /programs/64bit/g09/g09-gfortran/bin/l103.exe)

 GradGradGradGradGradGradGradGradGradGradGradGradGradGradGradGradGradGrad
 Berny optimization.
 Initialization pass.
                       ----------------------------
                       !    Initial Parameters    !
                       ! (Angstroms and Degrees)  !
 ----------------------                            ----------------------
 !      Name          Value   Derivative information (Atomic Units)     !
 ------------------------------------------------------------------------
 !       d1          1.4846   Frozen                                    !
 !       a1        178.4512   Frozen                                    !
 !       t1        119.5926   Frozen                                    !
 !       d2          1.104    Frozen                                    !
 !       a2        109.5865   Frozen                                    !
 !       t2       -178.5902   Frozen                                    !
 !       d3          1.1944   Frozen                                    !
 !       d4          1.1643   Frozen                                    !
 !       a3        108.5504   Frozen                                    !
 !       d5          1.1147   Frozen                                    !
 !       a4        108.638    Frozen                                    !
 !       t3        179.997    Frozen                                    !
 !       d6          1.1246   Frozen                                    !
 !       a5        108.6398   Frozen                                    !
 !       t4        120.0645   Frozen                                    !
 !       d7          1.1359   Frozen                                    !
 !       a6        178.5852   Frozen                                    !
 !       t5       -120.0      Frozen                                    !
 ------------------------------------------------------------------------
 Trust Radius=3.00D-01 FncErr=1.00D-07 GrdErr=1.00D-07
 Number of steps in this run=   2 maximum allowed number of steps=   2.
 GradGradGradGradGradGradGradGradGradGradGradGradGradGradGradGradGradGrad

 Leave Link  103 at Wed May 26 19:10:57 2021, MaxMem=   13107200 cpu:       0.0
 (Enter /programs/64bit/g09/g09-gfortran/bin/l202.exe)
                          Input orientation:                          
 ---------------------------------------------------------------------
 Center     Atomic      Atomic             Coordinates (Angstroms)
 Number     Number       Type             X           Y           Z
 ---------------------------------------------------------------------
      1          6           0        0.000000    0.000000    0.000000
      2          6           0        0.000000    0.000000    1.484628
      3          1           0        0.029840    0.000000   -1.103643
      4          1           0       -0.555686   -0.978480   -0.400389
      5          1           0       -1.103512    0.027157   -0.370423
      6          1           0       -1.056236    0.000055    1.840871
      7          1           0        0.533784   -0.922251    1.844061
      8          1           0        0.014024    0.024287    2.620159
 ---------------------------------------------------------------------
                    Distance matrix (angstroms):
                    1          2          3          4          5
     1  C    0.000000
     2  C    1.484628   0.000000
     3  H    1.104047   2.588444   0.000000
     4  H    1.194371   2.195336   1.339713   0.000000
     5  H    1.164341   2.158632   1.350125   1.145565   0.000000
     6  H    2.122367   1.114694   3.138427   2.496262   2.211965
     7  H    2.129797   1.124573   3.129452   2.495528   2.913083
     8  H    2.620309   1.135877   3.723916   3.233237   3.192566
                    6          7          8
     6  H    0.000000
     7  H    1.838157   0.000000
     8  H    1.324135   1.329817   0.000000
 Symmetry turned off by external request.
 Stoichiometry    C2H6
 Framework group  C1[X(C2H6)]
 Deg. of freedom    18
 Full point group                 C1      NOp   1
 Rotational constants (GHZ):    114.0240561     18.7299821     18.0318933
 Leave Link  202 at Wed May 26 19:10:57 2021, MaxMem=   13107200 cpu:       0.0
 (Enter /programs/64bit/g09/g09-gfortran/bin/l301.exe)
 Standard basis: 6-31+G(d,p) (6D, 7F)
 Ernie: Thresh=  0.10000D-02 Tol=  0.10000D-05 Strict=F.
 Integral buffers will be    131072 words long.
 Raffenetti 2 integral format.
 Two-electron integral symmetry is turned off.
    68 basis functions,   106 primitive gaussians,    68 cartesian basis functions
     9 alpha electrons        9 beta electrons
       nuclear repulsion energy        41.8906010957 Hartrees.
 IExCor=  402 DFT=T Ex+Corr=B3LYP ExCW=0 ScaHFX=  0.200000
 ScaDFX=  0.800000  0.720000  1.000000  0.810000 ScalE2=  1.000000  1.000000
 IRadAn=      0 IRanWt=     -1 IRanGd=            0 ICorTp=0
 NAtoms=    8 NActive=    8 NUniq=    8 SFac= 7.50D-01 NAtFMM=   80 NAOKFM=F Big=F
 Leave Link  301 at Wed May 26 19:10:57 2021, MaxMem=   13107200 cpu:       0.0
 (Enter /programs/64bit/g09/g09-gfortran/bin/l302.exe)
 NPDir=0 NMtPBC=     1 NCelOv=     1 NCel=       1 NClECP=     1 NCelD=      1
         NCelK=      1 NCelE2=     1 NClLst=     1 CellRange=     0.0.
 One-electron integrals computed using PRISM.
 NBasis=    68 RedAO= T  NBF=    68
 NBsUse=    68 1.00D-06 NBFU=    68
 Precomputing XC quadrature grid using
 IXCGrd= 2 IRadAn=           0 IRanWt=          -1 IRanGd=           0 AccXCQ= 1.00D-10.
 NRdTot=     510 NPtTot=       65100 NUsed=       68787 NTot=       68819
 NSgBfM=    68    68    68    68    68 NAtAll=     8     8.
 Leave Link  302 at Wed May 26 19:10:57 2021, MaxMem=   13107200 cpu:       0.1
 (Enter /programs/64bit/g09/g09-gfortran/bin/l303.exe)
 DipDrv:  MaxL=1.
 Leave Link  303 at Wed May 26 19:10:57 2021, MaxMem=   13107200 cpu:       0.0
 (Enter /programs/64bit/g09/g09-gfortran/bin/l401.exe)
 Harris functional with IExCor=  402 diagonalized for initial guess.
 ExpMin= 4.38D-02 ExpMax= 3.05D+03 ExpMxC= 4.57D+02 IAcc=2 IRadAn=         0 AccDes= 0.00D+00
 HarFok:  IExCor=  402 AccDes= 0.00D+00 IRadAn=         0 IDoV= 1
 ScaDFX=  1.000000  1.000000  1.000000  1.000000
 FoFCou: FMM=F IPFlag=           0 FMFlag=      100000 FMFlg1=           0
         NFxFlg=           0 DoJE=T BraDBF=F KetDBF=T FulRan=T
         Omega=  0.000000  0.000000  1.000000  0.000000  0.000000 ICntrl=     500 IOpCl=  0
         NMat0=    1 NMatS0=    1 NMatT0=    0 NMatD0=    1 NMtDS0=    0 NMtDT0=    0
         I1Cent=           4 NGrid=           0.
 Symmetry not used in FoFCou.
 Harris En= -79.6036545224790    
 Leave Link  401 at Wed May 26 19:10:58 2021, MaxMem=   13107200 cpu:       0.7
 (Enter /programs/64bit/g09/g09-gfortran/bin/l502.exe)
 Closed shell SCF:
 Requested convergence on RMS density matrix=1.00D-08 within 128 cycles.
 Requested convergence on MAX density matrix=1.00D-06.
 Requested convergence on             energy=1.00D-06.
 No special actions if energy rises.
 Using DIIS extrapolation, IDIIS=  1040.
 Two-electron integral symmetry not used.
        68702 words used for storage of precomputed grid.
 Keep R1 ints in memory in canonical form, NReq=3743087.
 IEnd=      101552 IEndB=      101552 NGot=    13107200 MDV=    10273922
 LenX=    10273922 LenY=    10268857
 Symmetry not used in FoFDir.
 MinBra= 0 MaxBra= 2 Meth= 1.
 IRaf=       0 NMat=   1 IRICut=       1 DoRegI=T DoRafI=F ISym2E= 0 JSym2E=0.

 Cycle   1  Pass 1  IDiag  1:
 E= -79.4226707584408    
 DIIS: error= 3.58D-02 at cycle   1 NSaved=   1.
 NSaved= 1 IEnMin= 1 EnMin= -79.4226707584408     IErMin= 1 ErrMin= 3.58D-02
 ErrMax= 3.58D-02 EMaxC= 1.00D-01 BMatC= 1.20D-01 BMatP= 1.20D-01
 IDIUse=3 WtCom= 6.42D-01 WtEn= 3.58D-01
 Coeff-Com:  0.100D+01
 Coeff-En:   0.100D+01
 Coeff:      0.100D+01
 Gap=     0.198 Goal=   None    Shift=    0.000
 GapD=    0.198 DampG=1.000 DampE=0.500 DampFc=0.5000 IDamp=-1.
 Damping current iteration by 5.00D-01
 RMSDP=3.99D-02 MaxDP=8.68D-01              OVMax= 2.94D-01

 Cycle   2  Pass 1  IDiag  1:
 E= -79.4584236377121     Delta-E=       -0.035752879271 Rises=F Damp=T
 DIIS: error= 1.38D-02 at cycle   2 NSaved=   2.
 NSaved= 2 IEnMin= 2 EnMin= -79.4584236377121     IErMin= 2 ErrMin= 1.38D-02
 ErrMax= 1.38D-02 EMaxC= 1.00D-01 BMatC= 1.34D-02 BMatP= 1.20D-01
 IDIUse=3 WtCom= 8.62D-01 WtEn= 1.38D-01
 Coeff-Com:  0.218D+00 0.782D+00
 Coeff-En:   0.362D+00 0.638D+00
 Coeff:      0.238D+00 0.762D+00
 Gap=     0.214 Goal=   None    Shift=    0.000
 RMSDP=1.55D-02 MaxDP=3.99D-01 DE=-3.58D-02 OVMax= 1.81D-01

 Cycle   3  Pass 1  IDiag  1:
 E= -79.5560316841392     Delta-E=       -0.097608046427 Rises=F Damp=F
 DIIS: error= 3.24D-03 at cycle   3 NSaved=   3.
 NSaved= 3 IEnMin= 3 EnMin= -79.5560316841392     IErMin= 3 ErrMin= 3.24D-03
 ErrMax= 3.24D-03 EMaxC= 1.00D-01 BMatC= 8.79D-04 BMatP= 1.34D-02
 IDIUse=3 WtCom= 9.68D-01 WtEn= 3.24D-02
 Coeff-Com:  0.495D-01 0.220D+00 0.731D+00
 Coeff-En:   0.000D+00 0.000D+00 0.100D+01
 Coeff:      0.479D-01 0.213D+00 0.739D+00
 Gap=     0.214 Goal=   None    Shift=    0.000
 RMSDP=1.28D-03 MaxDP=2.07D-02 DE=-9.76D-02 OVMax= 1.40D-02

 Cycle   4  Pass 1  IDiag  1:
 E= -79.5569046862994     Delta-E=       -0.000873002160 Rises=F Damp=F
 DIIS: error= 1.17D-03 at cycle   4 NSaved=   4.
 NSaved= 4 IEnMin= 4 EnMin= -79.5569046862994     IErMin= 4 ErrMin= 1.17D-03
 ErrMax= 1.17D-03 EMaxC= 1.00D-01 BMatC= 1.08D-04 BMatP= 8.79D-04
 IDIUse=3 WtCom= 9.88D-01 WtEn= 1.17D-02
 Coeff-Com:  0.697D-02 0.265D-01 0.266D+00 0.700D+00
 Coeff-En:   0.000D+00 0.000D+00 0.000D+00 0.100D+01
 Coeff:      0.689D-02 0.262D-01 0.263D+00 0.704D+00
 Gap=     0.213 Goal=   None    Shift=    0.000
 RMSDP=2.68D-04 MaxDP=3.53D-03 DE=-8.73D-04 OVMax= 4.34D-03

 Cycle   5  Pass 1  IDiag  1:
 E= -79.5570021743534     Delta-E=       -0.000097488054 Rises=F Damp=F
 DIIS: error= 6.47D-04 at cycle   5 NSaved=   5.
 NSaved= 5 IEnMin= 5 EnMin= -79.5570021743534     IErMin= 5 ErrMin= 6.47D-04
 ErrMax= 6.47D-04 EMaxC= 1.00D-01 BMatC= 2.07D-05 BMatP= 1.08D-04
 IDIUse=3 WtCom= 9.94D-01 WtEn= 6.47D-03
 Coeff-Com:  0.508D-03-0.369D-02 0.825D-01 0.372D+00 0.549D+00
 Coeff-En:   0.000D+00 0.000D+00 0.000D+00 0.658D-01 0.934D+00
 Coeff:      0.504D-03-0.366D-02 0.819D-01 0.370D+00 0.551D+00
 Gap=     0.213 Goal=   None    Shift=    0.000
 RMSDP=1.47D-04 MaxDP=2.33D-03 DE=-9.75D-05 OVMax= 1.51D-03

 Cycle   6  Pass 1  IDiag  1:
 E= -79.5570227366674     Delta-E=       -0.000020562314 Rises=F Damp=F
 DIIS: error= 6.62D-05 at cycle   6 NSaved=   6.
 NSaved= 6 IEnMin= 6 EnMin= -79.5570227366674     IErMin= 6 ErrMin= 6.62D-05
 ErrMax= 6.62D-05 EMaxC= 1.00D-01 BMatC= 2.92D-07 BMatP= 2.07D-05
 IDIUse=1 WtCom= 1.00D+00 WtEn= 0.00D+00
 Coeff-Com:  0.389D-03-0.198D-02 0.185D-01 0.961D-01 0.183D+00 0.704D+00
 Coeff:      0.389D-03-0.198D-02 0.185D-01 0.961D-01 0.183D+00 0.704D+00
 Gap=     0.213 Goal=   None    Shift=    0.000
 RMSDP=1.54D-05 MaxDP=2.01D-04 DE=-2.06D-05 OVMax= 2.04D-04

 Cycle   7  Pass 1  IDiag  1:
 E= -79.5570230396712     Delta-E=       -0.000000303004 Rises=F Damp=F
 DIIS: error= 8.60D-06 at cycle   7 NSaved=   7.
 NSaved= 7 IEnMin= 7 EnMin= -79.5570230396712     IErMin= 7 ErrMin= 8.60D-06
 ErrMax= 8.60D-06 EMaxC= 1.00D-01 BMatC= 8.98D-09 BMatP= 2.92D-07
 IDIUse=1 WtCom= 1.00D+00 WtEn= 0.00D+00
 Coeff-Com:  0.206D-03-0.367D-03 0.113D-02 0.675D-02 0.177D-01 0.153D+00
 Coeff-Com:  0.821D+00
 Coeff:      0.206D-03-0.367D-03 0.113D-02 0.675D-02 0.177D-01 0.153D+00
 Coeff:      0.821D+00
 Gap=     0.213 Goal=   None    Shift=    0.000
 RMSDP=4.56D-06 MaxDP=7.53D-05 DE=-3.03D-07 OVMax= 4.48D-05

 Cycle   8  Pass 1  IDiag  1:
 E= -79.5570230507315     Delta-E=       -0.000000011060 Rises=F Damp=F
 DIIS: error= 1.47D-06 at cycle   8 NSaved=   8.
 NSaved= 8 IEnMin= 8 EnMin= -79.5570230507315     IErMin= 8 ErrMin= 1.47D-06
 ErrMax= 1.47D-06 EMaxC= 1.00D-01 BMatC= 1.94D-10 BMatP= 8.98D-09
 IDIUse=1 WtCom= 1.00D+00 WtEn= 0.00D+00
 Coeff-Com:  0.499D-04-0.639D-04-0.210D-03-0.716D-03-0.666D-03 0.213D-01
 Coeff-Com:  0.217D+00 0.763D+00
 Coeff:      0.499D-04-0.639D-04-0.210D-03-0.716D-03-0.666D-03 0.213D-01
 Coeff:      0.217D+00 0.763D+00
 Gap=     0.213 Goal=   None    Shift=    0.000
 RMSDP=1.04D-06 MaxDP=1.44D-05 DE=-1.11D-08 OVMax= 6.43D-06

 Cycle   9  Pass 1  IDiag  1:
 E= -79.5570230509599     Delta-E=       -0.000000000228 Rises=F Damp=F
 DIIS: error= 2.38D-07 at cycle   9 NSaved=   9.
 NSaved= 9 IEnMin= 9 EnMin= -79.5570230509599     IErMin= 9 ErrMin= 2.38D-07
 ErrMax= 2.38D-07 EMaxC= 1.00D-01 BMatC= 4.94D-12 BMatP= 1.94D-10
 IDIUse=1 WtCom= 1.00D+00 WtEn= 0.00D+00
 Coeff-Com: -0.123D-05 0.212D-05-0.674D-04-0.315D-03-0.906D-03-0.305D-02
 Coeff-Com:  0.239D-02 0.141D+00 0.861D+00
 Coeff:     -0.123D-05 0.212D-05-0.674D-04-0.315D-03-0.906D-03-0.305D-02
 Coeff:      0.239D-02 0.141D+00 0.861D+00
 Gap=     0.213 Goal=   None    Shift=    0.000
 RMSDP=1.75D-07 MaxDP=2.38D-06 DE=-2.28D-10 OVMax= 1.69D-06

 Cycle  10  Pass 1  IDiag  1:
 E= -79.5570230509663     Delta-E=       -0.000000000006 Rises=F Damp=F
 DIIS: error= 4.70D-08 at cycle  10 NSaved=  10.
 NSaved=10 IEnMin=10 EnMin= -79.5570230509663     IErMin=10 ErrMin= 4.70D-08
 ErrMax= 4.70D-08 EMaxC= 1.00D-01 BMatC= 1.49D-13 BMatP= 4.94D-12
 IDIUse=1 WtCom= 1.00D+00 WtEn= 0.00D+00
 Coeff-Com: -0.106D-05 0.107D-05-0.839D-05-0.488D-04-0.171D-03-0.817D-03
 Coeff-Com: -0.231D-02 0.781D-02 0.173D+00 0.822D+00
 Coeff:     -0.106D-05 0.107D-05-0.839D-05-0.488D-04-0.171D-03-0.817D-03
 Coeff:     -0.231D-02 0.781D-02 0.173D+00 0.822D+00
 Gap=     0.213 Goal=   None    Shift=    0.000
 RMSDP=1.91D-08 MaxDP=2.36D-07 DE=-6.39D-12 OVMax= 2.45D-07

 Cycle  11  Pass 1  IDiag  1:
 E= -79.5570230509665     Delta-E=       -0.000000000000 Rises=F Damp=F
 DIIS: error= 1.03D-08 at cycle  11 NSaved=  11.
 NSaved=11 IEnMin=11 EnMin= -79.5570230509665     IErMin=11 ErrMin= 1.03D-08
 ErrMax= 1.03D-08 EMaxC= 1.00D-01 BMatC= 9.40D-15 BMatP= 1.49D-13
 IDIUse=1 WtCom= 1.00D+00 WtEn= 0.00D+00
 Coeff-Com: -0.151D-06 0.176D-06 0.113D-05-0.173D-06-0.632D-05-0.571D-04
 Coeff-Com: -0.538D-03-0.673D-02-0.231D-03 0.179D+00 0.828D+00
 Coeff:     -0.151D-06 0.176D-06 0.113D-05-0.173D-06-0.632D-05-0.571D-04
 Coeff:     -0.538D-03-0.673D-02-0.231D-03 0.179D+00 0.828D+00
 Gap=     0.213 Goal=   None    Shift=    0.000
 RMSDP=4.71D-09 MaxDP=5.68D-08 DE=-1.71D-13 OVMax= 4.63D-08

 SCF Done:  E(RB3LYP) =  -79.5570230510     A.U. after   11 cycles
             Convg  =    0.4707D-08             -V/T =  2.0108
 KE= 7.870361428093D+01 PE=-2.665740961306D+02 EE= 6.642285770298D+01
 Leave Link  502 at Wed May 26 19:11:05 2021, MaxMem=   13107200 cpu:       6.9
 (Enter /programs/64bit/g09/g09-gfortran/bin/l601.exe)
 Copying SCF densities to generalized density rwf, IOpCl= 0 IROHF=0.

 **********************************************************************

            Population analysis using the SCF density.

 **********************************************************************

 Alpha  occ. eigenvalues --  -10.21888 -10.21200  -0.79015  -0.69401  -0.50348
 Alpha  occ. eigenvalues --   -0.43786  -0.36603  -0.28649  -0.23276
 Alpha virt. eigenvalues --   -0.01938  -0.00635   0.03897   0.05139   0.06048
 Alpha virt. eigenvalues --    0.07135   0.08877   0.09531   0.12450   0.15623
 Alpha virt. eigenvalues --    0.18106   0.20925   0.23285   0.26033   0.40214
 Alpha virt. eigenvalues --    0.65605   0.67039   0.69256   0.71234   0.75004
 Alpha virt. eigenvalues --    0.82013   0.84533   0.86953   0.89638   0.92862
 Alpha virt. eigenvalues --    0.96299   1.07131   1.15792   1.22768   1.27163
 Alpha virt. eigenvalues --    1.31424   1.56072   1.66095   1.75799   1.80947
 Alpha virt. eigenvalues --    1.87082   1.95566   1.99826   2.11098   2.17800
 Alpha virt. eigenvalues --    2.23723   2.27979   2.42575   2.46616   2.60782
 Alpha virt. eigenvalues --    2.64774   2.67266   2.73669   2.76543   2.86002
 Alpha virt. eigenvalues --    2.98840   3.04513   3.08079   3.27213   3.32301
 Alpha virt. eigenvalues --    3.37206   3.77380   4.26733   5.11722
          Condensed to atoms (all electrons):
              1          2          3          4          5          6
     1  C    5.430255   0.095027   0.396882   0.334711   0.237972  -0.106352
     2  C    0.095027   5.313724   0.012423  -0.112705   0.000881   0.446874
     3  H    0.396882   0.012423   0.580480  -0.094262  -0.071653   0.004506
     4  H    0.334711  -0.112705  -0.094262   0.902702  -0.060101  -0.008509
     5  H    0.237972   0.000881  -0.071653  -0.060101   0.835492  -0.025184
     6  H   -0.106352   0.446874   0.004506  -0.008509  -0.025184   0.643734
     7  H   -0.154878   0.468385   0.002159  -0.025005   0.008019  -0.027959
     8  H    0.081552   0.244740  -0.000558   0.006005   0.000443  -0.067224
              7          8
     1  C   -0.154878   0.081552
     2  C    0.468385   0.244740
     3  H    0.002159  -0.000558
     4  H   -0.025005   0.006005
     5  H    0.008019   0.000443
     6  H   -0.027959  -0.067224
     7  H    0.665346  -0.072550
     8  H   -0.072550   0.600985
 Mulliken atomic charges:
              1
     1  C   -0.315170
     2  C   -0.469348
     3  H    0.170023
     4  H    0.057164
     5  H    0.074129
     6  H    0.140113
     7  H    0.136483
     8  H    0.206607
 Sum of Mulliken atomic charges =  -0.00000
 Mulliken charges with hydrogens summed into heavy atoms:
              1
     1  C   -0.013853
     2  C    0.013853
 Sum of Mulliken charges with hydrogens summed into heavy atoms =  -0.00000
 Electronic spatial extent (au):  <R**2>=            152.6553
 Charge=             -0.0000 electrons
 Dipole moment (field-independent basis, Debye):
    X=             -1.0868    Y=             -0.9347    Z=              0.4505  Tot=              1.5025
 Quadrupole moment (field-independent basis, Debye-Ang):
   XX=            -16.3010   YY=            -18.4361   ZZ=            -11.4481
   XY=             -0.1558   XZ=             -0.2072   YZ=             -0.9908
 Traceless Quadrupole moment (field-independent basis, Debye-Ang):
   XX=             -0.9059   YY=             -3.0411   ZZ=              3.9470
   XY=             -0.1558   XZ=             -0.2072   YZ=             -0.9908
 Octapole moment (field-independent basis, Debye-Ang**2):
  XXX=              4.3553  YYY=              4.5471  ZZZ=            -24.6417  XYY=              1.8202
  XXY=              0.8759  XXZ=            -11.5836  XZZ=             -1.6273  YZZ=             -3.0850
  YYZ=            -13.3028  XYZ=             -1.8757
 Hexadecapole moment (field-independent basis, Debye-Ang**3):
 XXXX=            -34.8919 YYYY=            -35.7180 ZZZZ=           -128.2241 XXXY=             -0.3413
 XXXZ=             -0.1229 YYYX=             -0.7113 YYYZ=              1.8127 ZZZX=             -5.7165
 ZZZY=             -7.8905 XXYY=            -11.7362 XXZZ=            -33.2818 YYZZ=            -37.3122
 XXYZ=              0.8203 YYXZ=              0.4453 ZZXY=             -2.9187
 N-N= 4.189060109571D+01 E-N=-2.665740962947D+02  KE= 7.870361428093D+01
 No NMR shielding tensors so no spin-rotation constants.
 Leave Link  601 at Wed May 26 19:11:05 2021, MaxMem=   13107200 cpu:       0.0
 (Enter /programs/64bit/g09/g09-gfortran/bin/l701.exe)
 Compute integral first derivatives.
 ... and contract with generalized density number  0.
 Leave Link  701 at Wed May 26 19:11:05 2021, MaxMem=   13107200 cpu:       0.1
 (Enter /programs/64bit/g09/g09-gfortran/bin/l702.exe)
 L702 exits ... SP integral derivatives will be done elsewhere.
 Leave Link  702 at Wed May 26 19:11:05 2021, MaxMem=   13107200 cpu:       0.0
 (Enter /programs/64bit/g09/g09-gfortran/bin/l703.exe)
 Compute integral first derivatives, UseDBF=F ICtDFT=           0.
 Integral derivatives from FoFDir, PRISM(SPDF).
 Calling FoFJK, ICntrl=      2127 FMM=F ISym2X=0 I1Cent= 0 IOpClX= 0 NMat=1 NMatS=1 NMatT=0.
 FoFCou: FMM=F IPFlag=           0 FMFlag=      100000 FMFlg1=         800
         NFxFlg=           0 DoJE=F BraDBF=F KetDBF=F FulRan=T
         Omega=  0.000000  0.000000  1.000000  0.000000  0.000000 ICntrl=    2127 IOpCl=  0
         NMat0=    1 NMatS0=    1 NMatT0=    0 NMatD0=    1 NMtDS0=    0 NMtDT0=    0
         I1Cent=           0 NGrid=           0.
 Symmetry not used in FoFCou.
 Leave Link  703 at Wed May 26 19:11:06 2021, MaxMem=   13107200 cpu:       1.3
 (Enter /programs/64bit/g09/g09-gfortran/bin/l716.exe)
 Dipole        =-4.27564530D-01-3.67726069D-01 1.77228893D-01
 -------------------------------------------------------------------
 Center     Atomic                   Forces (Hartrees/Bohr)
 Number     Number              X              Y              Z
 -------------------------------------------------------------------
      1        6          -0.115437139   -0.048864398   -0.085907553
      2        6          -0.011828933   -0.055410985    0.064664473
      3        1           0.081416252    0.051480662    0.003280196
      4        1           0.037397963   -0.031150861    0.043808772
      5        1          -0.010598379    0.049760396    0.034687948
      6        1          -0.010006111   -0.025657022   -0.027681519
      7        1          -0.018366460   -0.020541597   -0.024504046
      8        1           0.047422807    0.080383807   -0.008348269
 -------------------------------------------------------------------
 Cartesian Forces:  Max     0.115437139 RMS     0.049799362
 -----------------------------------------------------------------------------------------------
                       Internal Coordinate Forces (Hartree/Bohr or radian)
  Cent   Atom   N1       Length/X         N2         Alpha/Y        N3         Beta/Z          J
 -----------------------------------------------------------------------------------------------
      1  C 
      2  C        1   0.004131(     1)
      3  H        1  -0.001078(     2)      2  -0.169985(     8)
      4  H        1  -0.006565(     3)      2  -0.099678(     9)      3  -0.101862(    14)     0
      5  H        1   0.000170(     4)      2  -0.080631(    10)      3   0.103223(    15)     0
      6  H        2   0.000633(     5)      1  -0.061987(    11)      3  -0.001563(    16)     0
      7  H        2   0.000296(     6)      1  -0.055170(    12)      6  -0.052730(    17)     0
      8  H        2  -0.006041(     7)      1  -0.200705(    13)      6  -0.000046(    18)     0
 -----------------------------------------------------------------------------------------------
 Internal  Forces:  Max     0.200705059 RMS     0.080420079
 Force constants in Cartesian coordinates: 
                1             2             3             4             5 
      1  0.502346D+01
      2 -0.610144D+01  0.338383D+02
      3  0.107615D+00  0.622787D-01  0.851660D+00
      4 -0.104950D+02  0.142610D+02  0.355480D-01  0.247139D+02
      5  0.751370D+01 -0.211385D+02  0.203450D-01 -0.175416D+02  0.177498D+02
      6 -0.124473D-01 -0.211927D-01 -0.340450D+00 -0.626080D-01 -0.104185D+00
      7 -0.116588D+00  0.691593D-03 -0.428999D-01  0.330182D-01 -0.317169D-02
      8  0.213191D+01 -0.172270D+02 -0.272515D-01 -0.486840D+01  0.961621D+01
      9  0.583475D-02  0.186993D-04 -0.333545D+00  0.892748D-03 -0.857562D-04
     10 -0.518020D-01 -0.122874D+00 -0.383499D-01 -0.103436D+00  0.645774D-01
     11 -0.977751D-01 -0.155995D+00 -0.453537D-01  0.635590D-01 -0.281595D-01
     12 -0.372482D-01 -0.611725D-01 -0.867468D-01 -0.117712D-01 -0.208080D-01
     13 -0.250947D+00  0.673008D-02 -0.619130D-01  0.115189D-01 -0.183070D-02
     14 -0.772069D-01 -0.164996D-01 -0.100185D-01  0.131570D+00 -0.669037D-01
     15 -0.762013D-01 -0.112486D-02 -0.909178D-01 -0.246695D-01  0.548748D-03
     16  0.866629D-02 -0.178458D-04  0.000000D+00 -0.289249D+00  0.651716D-02
     17 -0.248731D-02 -0.136298D+00  0.000000D+00 -0.202795D-01 -0.114917D-01
     18  0.256954D-01 -0.320422D-04  0.000000D+00  0.943811D-01  0.192755D-01
     19  0.113297D-01  0.125408D+00  0.000000D+00 -0.119636D+00  0.180777D-01
     20  0.157490D-02  0.811691D-01  0.000000D+00  0.993010D-01 -0.265933D+00
     21 -0.127844D-01  0.220279D-01  0.000000D+00 -0.294645D-01  0.889038D-01
     22  0.587088D+01 -0.816953D+01  0.000000D+00 -0.137511D+02  0.994373D+01
     23 -0.336828D+01  0.475480D+01  0.000000D+00  0.787482D+01 -0.585503D+01
     24 -0.463615D-03 -0.803124D-03  0.000000D+00 -0.230859D-02 -0.399410D-02
                6             7             8             9            10 
      6  0.865512D+00
      7  0.000000D+00  0.907078D-01
      8  0.000000D+00  0.108438D-01  0.918524D+01
      9  0.000000D+00 -0.653449D-02  0.293194D-03  0.332209D+00
     10  0.000000D+00  0.397976D-02 -0.968327D-02  0.107605D-03  0.892926D-01
     11  0.000000D+00 -0.891845D-02 -0.583247D-02 -0.241137D-03  0.782010D-01
     12  0.000000D+00  0.162718D-01  0.276926D-01  0.439956D-03  0.330519D-01
     13  0.000000D+00 -0.111183D-01  0.488283D-03 -0.300616D-03 -0.109806D-02
     14  0.000000D+00  0.554776D-03  0.982442D-02  0.150001D-04  0.261768D-01
     15  0.000000D+00  0.331627D-01 -0.734352D-03  0.896653D-03  0.519034D-02
     16  0.700832D-01  0.000000D+00  0.444729D-05  0.000000D+00  0.000000D+00
     17  0.283947D-01  0.000000D+00  0.861169D-01  0.000000D+00  0.198581D-02
     18 -0.113292D+00  0.000000D+00  0.000000D+00  0.000000D+00  0.000000D+00
     19 -0.943462D-02  0.000000D+00 -0.738792D-01  0.000000D+00 -0.170362D-02
     20  0.725042D-01  0.000000D+00 -0.427600D-01  0.000000D+00 -0.986025D-03
     21 -0.110999D+00  0.000000D+00  0.000000D+00  0.000000D+00  0.000000D+00
     22  0.144067D-01  0.000000D+00  0.280872D+01  0.000000D+00  0.647676D-01
     23  0.244791D-01  0.000000D+00 -0.162181D+01  0.000000D+00 -0.373981D-01
     24 -0.300770D+00  0.000000D+00  0.000000D+00  0.000000D+00  0.000000D+00
               11            12            13            14            15 
     11  0.186318D+00
     12  0.490699D-01  0.850180D-01
     13  0.748086D-03 -0.304229D-03  0.253464D+00
     14 -0.170012D-01  0.521800D-02 -0.718555D-02  0.479227D-01
     15 -0.347503D-02  0.128887D-02  0.625178D-01  0.478550D-02  0.887323D-01
     16  0.000000D+00  0.000000D+00  0.000000D+00  0.000000D+00  0.000000D+00
     17 -0.112776D-02  0.000000D+00 -0.572749D-04 -0.232730D-02  0.000000D+00
     18  0.000000D+00  0.000000D+00  0.000000D+00  0.000000D+00  0.000000D+00
     19  0.967498D-03  0.000000D+00  0.491358D-04  0.199658D-02  0.000000D+00
     20  0.559971D-03  0.000000D+00  0.284390D-04  0.115558D-02  0.000000D+00
     21  0.000000D+00  0.000000D+00  0.000000D+00  0.000000D+00  0.000000D+00
     22 -0.367820D-01  0.000000D+00 -0.186803D-02 -0.759052D-01  0.000000D+00
     23  0.212386D-01  0.000000D+00  0.107864D-02  0.438291D-01  0.000000D+00
     24  0.000000D+00  0.000000D+00  0.000000D+00  0.000000D+00  0.000000D+00
               16            17            18            19            20 
     16  0.296526D+00
     17 -0.468186D-02  0.453734D-01
     18 -0.728004D-01 -0.138392D-01  0.105234D+00
     19 -0.462288D-02  0.263887D-01 -0.137106D-01  0.109481D+00
     20 -0.167240D-02  0.968037D-02 -0.496003D-02 -0.107545D+00  0.222468D+00
     21  0.257419D-02 -0.143508D-01  0.763450D-02  0.233919D-01 -0.675649D-01
     22 -0.113208D-01 -0.868614D-03 -0.335655D-01  0.510292D-02  0.929947D-02
     23 -0.149321D-03  0.100739D-01 -0.444269D-03  0.858600D-02 -0.633910D-02
     24  0.143007D-03 -0.204737D-03  0.424038D-03 -0.246662D-03  0.207341D-04
               21            22            23            24 
     21  0.102945D+00
     22  0.162829D-01  0.782354D+01
     23 -0.290160D-01 -0.447866D+01  0.265324D+01
     24  0.419512D-03  0.287586D-02  0.498123D-02  0.299927D+00
 Force constants in internal coordinates: 
                1             2             3             4             5 
      1  0.340450D+00
      2  0.000000D+00  0.332385D+00
      3  0.000000D+00  0.000000D+00  0.250808D+00
      4  0.000000D+00  0.000000D+00  0.000000D+00  0.274626D+00
      5  0.000000D+00  0.000000D+00  0.000000D+00  0.000000D+00  0.321080D+00
      6  0.000000D+00  0.000000D+00  0.000000D+00  0.000000D+00  0.000000D+00
      7  0.000000D+00  0.000000D+00  0.000000D+00  0.000000D+00  0.000000D+00
      8  0.000000D+00  0.000000D+00  0.000000D+00  0.000000D+00  0.000000D+00
      9  0.000000D+00  0.000000D+00  0.000000D+00  0.000000D+00  0.000000D+00
     10  0.000000D+00  0.000000D+00  0.000000D+00  0.000000D+00  0.000000D+00
     11  0.000000D+00  0.000000D+00  0.000000D+00  0.000000D+00  0.000000D+00
     12  0.000000D+00  0.000000D+00  0.000000D+00  0.000000D+00  0.000000D+00
     13  0.000000D+00  0.000000D+00  0.000000D+00  0.000000D+00  0.000000D+00
     14  0.000000D+00  0.000000D+00  0.000000D+00  0.000000D+00  0.000000D+00
     15  0.000000D+00  0.000000D+00  0.000000D+00  0.000000D+00  0.000000D+00
     16  0.000000D+00  0.000000D+00  0.000000D+00  0.000000D+00  0.000000D+00
     17  0.000000D+00  0.000000D+00  0.000000D+00  0.000000D+00  0.000000D+00
     18  0.000000D+00  0.000000D+00  0.000000D+00  0.000000D+00  0.000000D+00
                6             7             8             9            10 
      6  0.311045D+00
      7  0.000000D+00  0.300069D+00
      8  0.000000D+00  0.000000D+00  0.394067D+00
      9  0.000000D+00  0.000000D+00  0.813586D-01  0.326170D+00
     10  0.000000D+00  0.000000D+00  0.160637D+00  0.716614D-02  0.328231D+00
     11  0.000000D+00  0.000000D+00  0.000000D+00  0.000000D+00  0.000000D+00
     12  0.000000D+00  0.000000D+00  0.000000D+00  0.000000D+00  0.000000D+00
     13  0.000000D+00  0.000000D+00  0.000000D+00  0.000000D+00  0.000000D+00
     14  0.000000D+00  0.000000D+00  0.349049D-01  0.229669D-01  0.307431D-01
     15  0.000000D+00  0.000000D+00 -0.122368D-02 -0.260304D-01 -0.306071D-01
     16  0.000000D+00  0.000000D+00  0.000000D+00  0.000000D+00  0.000000D+00
     17  0.000000D+00  0.000000D+00  0.000000D+00  0.000000D+00  0.000000D+00
     18  0.000000D+00  0.000000D+00  0.000000D+00  0.000000D+00  0.000000D+00
               11            12            13            14            15 
     11  0.357994D+00
     12  0.380641D-01  0.357990D+00
     13  0.819514D-01  0.817961D-01  0.308887D+00
     14  0.000000D+00  0.000000D+00  0.000000D+00  0.207062D+00
     15  0.000000D+00  0.000000D+00  0.000000D+00 -0.138020D+00  0.207527D+00
     16  0.580648D-03 -0.578759D-03 -0.269996D-04  0.290785D-01  0.290785D-01
     17 -0.642419D-01 -0.614197D-01 -0.355543D-01  0.969284D-02  0.969284D-02
     18  0.339849D-02 -0.340068D-02  0.158791D-05  0.969284D-02  0.969284D-02
               16            17            18 
     16  0.165751D+00
     17  0.688694D-01  0.180767D+00
     18  0.280141D-01 -0.611596D-03  0.292382D-01
 Leave Link  716 at Wed May 26 19:11:06 2021, MaxMem=   13107200 cpu:       0.0
 (Enter /programs/64bit/g09/g09-gfortran/bin/l103.exe)

 GradGradGradGradGradGradGradGradGradGradGradGradGradGradGradGradGradGrad
 Berny optimization.
 Search for a local minimum.
 Step number   1 out of a maximum of    2
 All quantities printed in internal units (Hartrees-Bohrs-Radians)
 Second derivative matrix not updated -- first step.
 The second derivative matrix:
                          d1        a1        t1        d2        a2
           d1           0.34045
           a1           0.00000   0.39407
           t1           0.00000   0.03490   0.20706
           d2           0.00000   0.00000   0.00000   0.33239
           a2           0.00000   0.08136   0.02297   0.00000   0.32617
           t2           0.00000  -0.00122  -0.13802  -0.00000  -0.02603
           d3          -0.00000  -0.00000  -0.00000   0.00000  -0.00000
           d4           0.00000  -0.00000   0.00000  -0.00000   0.00000
           a3          -0.00000   0.16064   0.03074   0.00000   0.00717
           d5           0.00000   0.00000  -0.00000   0.00000  -0.00000
           a4          -0.00000   0.00000   0.00000   0.00000   0.00000
           t3          -0.00000   0.00000   0.02908   0.00000   0.00000
           d6           0.00000   0.00000   0.00000   0.00000  -0.00000
           a5           0.00000   0.00000   0.00000   0.00000  -0.00000
           t4           0.00000   0.00000   0.00969   0.00000  -0.00000
           d7           0.00000   0.00000   0.00000   0.00000  -0.00000
           a6           0.00000   0.00000  -0.00000   0.00000   0.00000
           t5           0.00000   0.00000   0.00969   0.00000  -0.00000
                          t2        d3        d4        a3        d5
           t2           0.20753
           d3          -0.00000   0.25081
           d4          -0.00000   0.00000   0.27463
           a3          -0.03061   0.00000  -0.00000   0.32823
           d5          -0.00000  -0.00000   0.00000  -0.00000   0.32108
           a4           0.00000   0.00000   0.00000  -0.00000   0.00000
           t3           0.02908  -0.00000  -0.00000   0.00000   0.00000
           d6          -0.00000  -0.00000  -0.00000   0.00000  -0.00000
           a5           0.00000   0.00000   0.00000  -0.00000   0.00000
           t4           0.00969   0.00000  -0.00000   0.00000  -0.00000
           d7           0.00000   0.00000   0.00000   0.00000   0.00000
           a6          -0.00000  -0.00000   0.00000  -0.00000   0.00000
           t5           0.00969   0.00000  -0.00000   0.00000   0.00000
                          a4        t3        d6        a5        t4
           a4           0.35799
           t3           0.00058   0.16575
           d6          -0.00000  -0.00000   0.31105
           a5           0.03806  -0.00058  -0.00000   0.35799
           t4          -0.06424   0.06887  -0.00000  -0.06142   0.18077
           d7           0.00000  -0.00000   0.00000   0.00000  -0.00000
           a6           0.08195  -0.00003  -0.00000   0.08180  -0.03555
           t5           0.00340   0.02801  -0.00000  -0.00340  -0.00061
                          d7        a6        t5
           d7           0.30007
           a6           0.00000   0.30889
           t5           0.00000   0.00000   0.02924
     Eigenvalues --- 1000.000001000.000001000.000001000.000001000.00000
     Eigenvalues --- 1000.000001000.000001000.000001000.000001000.00000
     Eigenvalues --- 1000.000001000.000001000.000001000.000001000.00000
     Eigenvalues --- 1000.000001000.000001000.00000
 Angle between quadratic step and forces=  90.00 degrees.
 Linear search not attempted -- first point.
 Variable       Old X    -DE/DX   Delta X   Delta X   Delta X     New X
                                 (Linear)    (Quad)   (Total)
    d1        2.80554   0.00413   0.00000   0.00000   0.00000   2.80554
    a1        3.11456  -0.16999   0.00000   0.00000   0.00000   3.11456
    t1        2.08728  -0.10186   0.00000   0.00000   0.00000   2.08728
    d2        2.08635  -0.00108   0.00000   0.00000   0.00000   2.08635
    a2        1.91265  -0.09968   0.00000   0.00000   0.00000   1.91265
    t2       -3.11699   0.10322   0.00000   0.00000   0.00000  -3.11699
    d3        2.25703  -0.00657   0.00000   0.00000   0.00000   2.25703
    d4        2.20029   0.00017   0.00000   0.00000   0.00000   2.20029
    a3        1.89456  -0.08063   0.00000   0.00000   0.00000   1.89456
    d5        2.10647   0.00063   0.00000   0.00000   0.00000   2.10647
    a4        1.89609  -0.06199   0.00000   0.00000   0.00000   1.89609
    t3        3.14154  -0.00156   0.00000   0.00000   0.00000   3.14154
    d6        2.12513   0.00030   0.00000   0.00000   0.00000   2.12513
    a5        1.89612  -0.05517   0.00000   0.00000   0.00000   1.89612
    t4        2.09552  -0.05273   0.00000   0.00000   0.00000   2.09552
    d7        2.14650  -0.00604   0.00000   0.00000   0.00000   2.14650
    a6        3.11690  -0.20071   0.00000   0.00000   0.00000   3.11690
    t5       -2.09440  -0.00005   0.00000   0.00000   0.00000  -2.09440
         Item               Value     Threshold  Converged?
 Maximum Force            0.000000     0.000450     YES
 RMS     Force            0.000000     0.000300     YES
 Maximum Displacement     0.000000     0.001800     YES
 RMS     Displacement     0.000000     0.001200     YES
 Predicted change in Energy=-0.000000D+00
 Optimization completed.
    -- Stationary point found.
                       ----------------------------
                       !   Optimized Parameters   !
                       ! (Angstroms and Degrees)  !
 ----------------------                            ----------------------
 !      Name          Value   Derivative information (Atomic Units)     !
 ------------------------------------------------------------------------
 !       d1          1.4846   -DE/DX =    0.0041                        !
 !       a1        178.4512   -DE/DX =   -0.17                          !
 !       t1        119.5926   -DE/DX =   -0.1019                        !
 !       d2          1.104    -DE/DX =   -0.0011                        !
 !       a2        109.5865   -DE/DX =   -0.0997                        !
 !       t2       -178.5902   -DE/DX =    0.1032                        !
 !       d3          1.1944   -DE/DX =   -0.0066                        !
 !       d4          1.1643   -DE/DX =    0.0002                        !
 !       a3        108.5504   -DE/DX =   -0.0806                        !
 !       d5          1.1147   -DE/DX =    0.0006                        !
 !       a4        108.638    -DE/DX =   -0.062                         !
 !       t3        179.997    -DE/DX =   -0.0016                        !
 !       d6          1.1246   -DE/DX =    0.0003                        !
 !       a5        108.6398   -DE/DX =   -0.0552                        !
 !       t4        120.0645   -DE/DX =   -0.0527                        !
 !       d7          1.1359   -DE/DX =   -0.006                         !
 !       a6        178.5852   -DE/DX =   -0.2007                        !
 !       t5       -120.0      -DE/DX =    0.0                           !
 ------------------------------------------------------------------------
 GradGradGradGradGradGradGradGradGradGradGradGradGradGradGradGradGradGrad

 Leave Link  103 at Wed May 26 19:11:06 2021, MaxMem=   13107200 cpu:       0.0
 (Enter /programs/64bit/g09/g09-gfortran/bin/l9999.exe)
 1\1\GINC-MOLMOD\Force\RB3LYP\6-31+G(d,p)\C2H6\OSPITE\26-May-2021\1\\#p
  b3lyp/6-31+g(d,p) force nosym\\c2h6 molecule\\0,1\C\C,1,d1\H,1,d2,2,a
 1\H,1,d3,2,a2,3,t1,0\H,1,d4,2,a3,3,t2,0\H,2,d5,1,a4,3,t3,0\H,2,d6,1,a5
 ,6,t4,0\H,2,d7,1,a6,6,t5,0\\d1=1.48462839\a1=178.45121217\t1=119.59257
 152\d2=1.10404675\a2=109.58652047\t2=-178.59023494\d3=1.19437083\d4=1.
 16434105\a3=108.55043254\d5=1.1146945\a4=108.63798582\t3=179.9970411\d
 6=1.124573\a5=108.63975939\t4=120.06449114\d7=1.13587726\a6=178.585201
 47\t5=-119.99999919\\Version=EM64L-G09RevA.02\HF=-79.5570231\RMSD=4.70
 7e-09\RMSF=4.980e-02\Dipole=-0.4275645,-0.3677261,0.1772289\Quadrupole
 =-0.6735182,-2.2609612,2.9344794,-0.1158529,-0.1540122,-0.7366141\PG=C
 01 [X(C2H6)]\\@


 SUCCESS IS NEVER CERTAIN,
 FAILURE IS NEVER FINAL.
 Job cpu time:  0 days  0 hours  0 minutes  9.4 seconds.
 File lengths (MBytes):  RWF=      5 Int=      0 D2E=      0 Chk=      1 Scr=      1
 Normal termination of Gaussian 09 at Wed May 26 19:11:06 2021.
