 Entering Gaussian System, Link 0=g09
 Input=c2h6_025.com
 Output=c2h6_025.log
 Initial command:
 /programs/64bit/g09/g09-gfortran/bin/l1.exe /data/scratch/Gau-17507.inp -scrdir=/data/scratch/
 Entering Link 1 = /programs/64bit/g09/g09-gfortran/bin/l1.exe PID=     17508.
  
 Copyright (c) 1988,1990,1992,1993,1995,1998,2003,2009, Gaussian, Inc.
                  All Rights Reserved.
  
 This is part of the Gaussian(R) 09 program.  It is based on
 the Gaussian(R) 03 system (copyright 2003, Gaussian, Inc.),
 the Gaussian(R) 98 system (copyright 1998, Gaussian, Inc.),
 the Gaussian(R) 94 system (copyright 1995, Gaussian, Inc.),
 the Gaussian 92(TM) system (copyright 1992, Gaussian, Inc.),
 the Gaussian 90(TM) system (copyright 1990, Gaussian, Inc.),
 the Gaussian 88(TM) system (copyright 1988, Gaussian, Inc.),
 the Gaussian 86(TM) system (copyright 1986, Carnegie Mellon
 University), and the Gaussian 82(TM) system (copyright 1983,
 Carnegie Mellon University). Gaussian is a federally registered
 trademark of Gaussian, Inc.
  
 This software contains proprietary and confidential information,
 including trade secrets, belonging to Gaussian, Inc.
  
 This software is provided under written license and may be
 used, copied, transmitted, or stored only in accord with that
 written license.
  
 The following legend is applicable only to US Government
 contracts under FAR:
  
                    RESTRICTED RIGHTS LEGEND
  
 Use, reproduction and disclosure by the US Government is
 subject to restrictions as set forth in subparagraphs (a)
 and (c) of the Commercial Computer Software - Restricted
 Rights clause in FAR 52.227-19.
  
 Gaussian, Inc.
 340 Quinnipiac St., Bldg. 40, Wallingford CT 06492
  
  
 ---------------------------------------------------------------
 Warning -- This program may not be used in any manner that
 competes with the business of Gaussian, Inc. or will provide
 assistance to any competitor of Gaussian, Inc.  The licensee
 of this program is prohibited from giving any competitor of
 Gaussian, Inc. access to this program.  By using this program,
 the user acknowledges that Gaussian, Inc. is engaged in the
 business of creating and licensing software in the field of
 computational chemistry and represents and warrants to the
 licensee that it is not a competitor of Gaussian, Inc. and that
 it will not use this program in any manner prohibited above.
 ---------------------------------------------------------------
  

 Cite this work as:
 Gaussian 09, Revision A.02,
 M. J. Frisch, G. W. Trucks, H. B. Schlegel, G. E. Scuseria, 
 M. A. Robb, J. R. Cheeseman, G. Scalmani, V. Barone, B. Mennucci, 
 G. A. Petersson, H. Nakatsuji, M. Caricato, X. Li, H. P. Hratchian, 
 A. F. Izmaylov, J. Bloino, G. Zheng, J. L. Sonnenberg, M. Hada, 
 M. Ehara, K. Toyota, R. Fukuda, J. Hasegawa, M. Ishida, T. Nakajima, 
 Y. Honda, O. Kitao, H. Nakai, T. Vreven, J. A. Montgomery, Jr., 
 J. E. Peralta, F. Ogliaro, M. Bearpark, J. J. Heyd, E. Brothers, 
 K. N. Kudin, V. N. Staroverov, R. Kobayashi, J. Normand, 
 K. Raghavachari, A. Rendell, J. C. Burant, S. S. Iyengar, J. Tomasi, 
 M. Cossi, N. Rega, J. M. Millam, M. Klene, J. E. Knox, J. B. Cross, 
 V. Bakken, C. Adamo, J. Jaramillo, R. Gomperts, R. E. Stratmann, 
 O. Yazyev, A. J. Austin, R. Cammi, C. Pomelli, J. W. Ochterski, 
 R. L. Martin, K. Morokuma, V. G. Zakrzewski, G. A. Voth, 
 P. Salvador, J. J. Dannenberg, S. Dapprich, A. D. Daniels, 
 O. Farkas, J. B. Foresman, J. V. Ortiz, J. Cioslowski, 
 and D. J. Fox, Gaussian, Inc., Wallingford CT, 2009.
 
 ******************************************
 Gaussian 09:  EM64L-G09RevA.02 11-Jun-2009
                27-May-2021 
 ******************************************
 %chk=c2h6_025.chk
 %mem=100MB
 --------------------------------
 #p b3lyp/6-31+g(d,p) force nosym
 --------------------------------
 1/10=7,30=1,38=1/1,3;
 2/12=2,15=1,17=6,18=5,40=1/2;
 3/5=1,6=6,7=111,11=2,16=1,25=1,30=1,71=1,74=-5/1,2,3;
 4//1;
 5/5=2,38=5/2;
 6/7=2,8=2,9=2,10=2,28=1/1;
 7/29=1,30=1/1,2,3,16;
 1/10=7,30=1/3;
 99//99;
 Leave Link    1 at Thu May 27 13:54:06 2021, MaxMem=   13107200 cpu:       0.0
 (Enter /programs/64bit/g09/g09-gfortran/bin/l101.exe)
 -------------
 c2h6 molecule
 -------------
 Symbolic Z-matrix:
 Charge =  0 Multiplicity = 1
 C1
 C2                   1    d1
 H3                   1    d2       2    a1
 H4                   1    d3       2    a2       3    t1       0
 H5                   1    d4       2    a3       3    t2       0
 H6                   2    d5       1    a4       3    t3       0
 H7                   2    d6       1    a5       6    t4       0
 H8                   2    d7       1    a6       6    t5       0
       Variables:
       Constants:
  d1                    1.54648                  
  a1                  109.0184                   
  t1                  120.00003                  
  d2                    1.09382                  
  a2                  110.01771                  
  t2                 -120.00003                  
  d3                    1.09429                  
  d4                    1.09449                  
  a3                  109.0183                   
  d5                    1.09407                  
  a4                  109.01823                  
  t3                  180.                       
  d6                    1.09416                  
  a5                  109.01818                  
  t4                  120.00002                  
  d7                    1.09403                  
  a6                  109.01803                  
  t5                 -120.00002                  
 
 NAtoms=      8 NQM=      8 NQMF=      0 NMic=      0 NMicF=      0 NTot=      8.
                    Isotopes and Nuclear Properties:
 (Nuclear quadrupole moments (NQMom) in fm**2, nuclear magnetic moments (NMagM)
  in nuclear magnetons)

  Atom         1           2           3           4           5           6           7           8
 IAtWgt=          12          12           1           1           1           1           1           1
 AtmWgt=  12.0000000  12.0000000   1.0078250   1.0078250   1.0078250   1.0078250   1.0078250   1.0078250
 NucSpn=           0           0           1           1           1           1           1           1
 AtZEff=   0.0000000   0.0000000   0.0000000   0.0000000   0.0000000   0.0000000   0.0000000   0.0000000
 NQMom=    0.0000000   0.0000000   0.0000000   0.0000000   0.0000000   0.0000000   0.0000000   0.0000000
 NMagM=    0.0000000   0.0000000   2.7928460   2.7928460   2.7928460   2.7928460   2.7928460   2.7928460
 Leave Link  101 at Thu May 27 13:54:06 2021, MaxMem=   13107200 cpu:       0.0
 (Enter /programs/64bit/g09/g09-gfortran/bin/l103.exe)

 GradGradGradGradGradGradGradGradGradGradGradGradGradGradGradGradGradGrad
 Berny optimization.
 Initialization pass.
                       ----------------------------
                       !    Initial Parameters    !
                       ! (Angstroms and Degrees)  !
 ----------------------                            ----------------------
 !      Name          Value   Derivative information (Atomic Units)     !
 ------------------------------------------------------------------------
 !       d1          1.5465   Frozen                                    !
 !       a1        109.0184   Frozen                                    !
 !       t1        120.0      Frozen                                    !
 !       d2          1.0938   Frozen                                    !
 !       a2        110.0177   Frozen                                    !
 !       t2       -120.0      Frozen                                    !
 !       d3          1.0943   Frozen                                    !
 !       d4          1.0945   Frozen                                    !
 !       a3        109.0183   Frozen                                    !
 !       d5          1.0941   Frozen                                    !
 !       a4        109.0182   Frozen                                    !
 !       t3        180.0      Frozen                                    !
 !       d6          1.0942   Frozen                                    !
 !       a5        109.0182   Frozen                                    !
 !       t4        120.0      Frozen                                    !
 !       d7          1.094    Frozen                                    !
 !       a6        109.018    Frozen                                    !
 !       t5       -120.0      Frozen                                    !
 ------------------------------------------------------------------------
 Trust Radius=3.00D-01 FncErr=1.00D-07 GrdErr=1.00D-07
 Number of steps in this run=   2 maximum allowed number of steps=   2.
 GradGradGradGradGradGradGradGradGradGradGradGradGradGradGradGradGradGrad

 Leave Link  103 at Thu May 27 13:54:06 2021, MaxMem=   13107200 cpu:       0.0
 (Enter /programs/64bit/g09/g09-gfortran/bin/l202.exe)
                          Input orientation:                          
 ---------------------------------------------------------------------
 Center     Atomic      Atomic             Coordinates (Angstroms)
 Number     Number       Type             X           Y           Z
 ---------------------------------------------------------------------
      1          6           0        0.000000    0.000000    0.000000
      2          6           0        0.000000    0.000000    1.546476
      3          1           0        1.034113    0.000000   -0.356445
      4          1           0       -0.514093   -0.890433   -0.374588
      5          1           0       -0.517376    0.896120   -0.356663
      6          1           0       -1.034353    0.000000    1.903001
      7          1           0        0.517220   -0.895850    1.903029
      8          1           0        0.517157    0.895742    1.902983
 ---------------------------------------------------------------------
                    Distance matrix (angstroms):
                    1          2          3          4          5
     1  C    0.000000
     2  C    1.546476   0.000000
     3  H    1.093820   2.165756   0.000000
     4  H    1.094294   2.178911   1.786097   0.000000
     5  H    1.094494   2.166252   1.791689   1.786647   0.000000
     6  H    2.165940   1.094073   3.063274   2.500191   2.485232
     7  H    2.166006   1.094163   2.484945   2.500235   3.063944
     8  H    2.165906   1.094030   2.484877   3.072659   2.485208
                    6          7          8
     6  H    0.000000
     7  H    1.791626   0.000000
     8  H    1.791518   1.791592   0.000000
 Symmetry turned off by external request.
 Stoichiometry    C2H6
 Framework group  C1[X(C2H6)]
 Deg. of freedom    18
 Full point group                 C1      NOp   1
 Rotational constants (GHZ):     78.2666659     19.9508377     19.9404208
 Leave Link  202 at Thu May 27 13:54:06 2021, MaxMem=   13107200 cpu:       0.0
 (Enter /programs/64bit/g09/g09-gfortran/bin/l301.exe)
 Standard basis: 6-31+G(d,p) (6D, 7F)
 Ernie: Thresh=  0.10000D-02 Tol=  0.10000D-05 Strict=F.
 Integral buffers will be    131072 words long.
 Raffenetti 2 integral format.
 Two-electron integral symmetry is turned off.
    68 basis functions,   106 primitive gaussians,    68 cartesian basis functions
     9 alpha electrons        9 beta electrons
       nuclear repulsion energy        42.0830360260 Hartrees.
 IExCor=  402 DFT=T Ex+Corr=B3LYP ExCW=0 ScaHFX=  0.200000
 ScaDFX=  0.800000  0.720000  1.000000  0.810000 ScalE2=  1.000000  1.000000
 IRadAn=      0 IRanWt=     -1 IRanGd=            0 ICorTp=0
 NAtoms=    8 NActive=    8 NUniq=    8 SFac= 7.50D-01 NAtFMM=   80 NAOKFM=F Big=F
 Leave Link  301 at Thu May 27 13:54:06 2021, MaxMem=   13107200 cpu:       0.0
 (Enter /programs/64bit/g09/g09-gfortran/bin/l302.exe)
 NPDir=0 NMtPBC=     1 NCelOv=     1 NCel=       1 NClECP=     1 NCelD=      1
         NCelK=      1 NCelE2=     1 NClLst=     1 CellRange=     0.0.
 One-electron integrals computed using PRISM.
 NBasis=    68 RedAO= T  NBF=    68
 NBsUse=    68 1.00D-06 NBFU=    68
 Precomputing XC quadrature grid using
 IXCGrd= 2 IRadAn=           0 IRanWt=          -1 IRanGd=           0 AccXCQ= 1.00D-10.
 NRdTot=     510 NPtTot=       65100 NUsed=       68787 NTot=       68819
 NSgBfM=    68    68    68    68    68 NAtAll=     8     8.
 Leave Link  302 at Thu May 27 13:54:06 2021, MaxMem=   13107200 cpu:       0.1
 (Enter /programs/64bit/g09/g09-gfortran/bin/l303.exe)
 DipDrv:  MaxL=1.
 Leave Link  303 at Thu May 27 13:54:06 2021, MaxMem=   13107200 cpu:       0.0
 (Enter /programs/64bit/g09/g09-gfortran/bin/l401.exe)
 Harris functional with IExCor=  402 diagonalized for initial guess.
 ExpMin= 4.38D-02 ExpMax= 3.05D+03 ExpMxC= 4.57D+02 IAcc=2 IRadAn=         0 AccDes= 0.00D+00
 HarFok:  IExCor=  402 AccDes= 0.00D+00 IRadAn=         0 IDoV= 1
 ScaDFX=  1.000000  1.000000  1.000000  1.000000
 FoFCou: FMM=F IPFlag=           0 FMFlag=      100000 FMFlg1=           0
         NFxFlg=           0 DoJE=T BraDBF=F KetDBF=T FulRan=T
         Omega=  0.000000  0.000000  1.000000  0.000000  0.000000 ICntrl=     500 IOpCl=  0
         NMat0=    1 NMatS0=    1 NMatT0=    0 NMatD0=    1 NMtDS0=    0 NMtDT0=    0
         I1Cent=           4 NGrid=           0.
 Symmetry not used in FoFCou.
 Harris En= -79.8973234865017    
 Leave Link  401 at Thu May 27 13:54:07 2021, MaxMem=   13107200 cpu:       0.6
 (Enter /programs/64bit/g09/g09-gfortran/bin/l502.exe)
 Closed shell SCF:
 Requested convergence on RMS density matrix=1.00D-08 within 128 cycles.
 Requested convergence on MAX density matrix=1.00D-06.
 Requested convergence on             energy=1.00D-06.
 No special actions if energy rises.
 Using DIIS extrapolation, IDIIS=  1040.
 Two-electron integral symmetry not used.
        68702 words used for storage of precomputed grid.
 Keep R1 ints in memory in canonical form, NReq=3743087.
 IEnd=      101552 IEndB=      101552 NGot=    13107200 MDV=    10273922
 LenX=    10273922 LenY=    10268857
 Symmetry not used in FoFDir.
 MinBra= 0 MaxBra= 2 Meth= 1.
 IRaf=       0 NMat=   1 IRICut=       1 DoRegI=T DoRafI=F ISym2E= 0 JSym2E=0.

 Cycle   1  Pass 1  IDiag  1:
 E= -79.7099348310627    
 DIIS: error= 3.96D-02 at cycle   1 NSaved=   1.
 NSaved= 1 IEnMin= 1 EnMin= -79.7099348310627     IErMin= 1 ErrMin= 3.96D-02
 ErrMax= 3.96D-02 EMaxC= 1.00D-01 BMatC= 1.15D-01 BMatP= 1.15D-01
 IDIUse=3 WtCom= 6.04D-01 WtEn= 3.96D-01
 Coeff-Com:  0.100D+01
 Coeff-En:   0.100D+01
 Coeff:      0.100D+01
 Gap=     0.283 Goal=   None    Shift=    0.000
 GapD=    0.283 DampG=1.000 DampE=0.500 DampFc=0.5000 IDamp=-1.
 Damping current iteration by 5.00D-01
 RMSDP=9.57D-03 MaxDP=1.39D-01              OVMax= 2.02D-01

 Cycle   2  Pass 1  IDiag  1:
 E= -79.7642305826981     Delta-E=       -0.054295751635 Rises=F Damp=T
 DIIS: error= 1.15D-02 at cycle   2 NSaved=   2.
 NSaved= 2 IEnMin= 2 EnMin= -79.7642305826981     IErMin= 2 ErrMin= 1.15D-02
 ErrMax= 1.15D-02 EMaxC= 1.00D-01 BMatC= 4.49D-03 BMatP= 1.15D-01
 IDIUse=3 WtCom= 8.85D-01 WtEn= 1.15D-01
 Coeff-Com:  0.108D+00 0.892D+00
 Coeff-En:   0.185D+00 0.815D+00
 Coeff:      0.117D+00 0.883D+00
 Gap=     0.372 Goal=   None    Shift=    0.000
 RMSDP=1.27D-03 MaxDP=9.72D-03 DE=-5.43D-02 OVMax= 1.25D-01

 Cycle   3  Pass 1  IDiag  1:
 E= -79.8403198850758     Delta-E=       -0.076089302378 Rises=F Damp=F
 DIIS: error= 2.27D-03 at cycle   3 NSaved=   3.
 NSaved= 3 IEnMin= 3 EnMin= -79.8403198850758     IErMin= 3 ErrMin= 2.27D-03
 ErrMax= 2.27D-03 EMaxC= 1.00D-01 BMatC= 1.52D-04 BMatP= 4.49D-03
 IDIUse=3 WtCom= 9.77D-01 WtEn= 2.27D-02
 Coeff-Com:  0.713D-02 0.105D+00 0.887D+00
 Coeff-En:   0.000D+00 0.000D+00 0.100D+01
 Coeff:      0.697D-02 0.103D+00 0.890D+00
 Gap=     0.365 Goal=   None    Shift=    0.000
 RMSDP=1.97D-04 MaxDP=2.13D-03 DE=-7.61D-02 OVMax= 4.56D-03

 Cycle   4  Pass 1  IDiag  1:
 E= -79.8404500578245     Delta-E=       -0.000130172749 Rises=F Damp=F
 DIIS: error= 7.00D-04 at cycle   4 NSaved=   4.
 NSaved= 4 IEnMin= 4 EnMin= -79.8404500578245     IErMin= 4 ErrMin= 7.00D-04
 ErrMax= 7.00D-04 EMaxC= 1.00D-01 BMatC= 1.05D-05 BMatP= 1.52D-04
 IDIUse=3 WtCom= 9.93D-01 WtEn= 7.00D-03
 Coeff-Com: -0.507D-03-0.514D-02 0.198D+00 0.807D+00
 Coeff-En:   0.000D+00 0.000D+00 0.000D+00 0.100D+01
 Coeff:     -0.503D-03-0.510D-02 0.197D+00 0.809D+00
 Gap=     0.365 Goal=   None    Shift=    0.000
 RMSDP=4.39D-05 MaxDP=4.47D-04 DE=-1.30D-04 OVMax= 1.22D-03

 Cycle   5  Pass 1  IDiag  1:
 E= -79.8404600023068     Delta-E=       -0.000009944482 Rises=F Damp=F
 DIIS: error= 2.48D-05 at cycle   5 NSaved=   5.
 NSaved= 5 IEnMin= 5 EnMin= -79.8404600023068     IErMin= 5 ErrMin= 2.48D-05
 ErrMax= 2.48D-05 EMaxC= 1.00D-01 BMatC= 2.58D-08 BMatP= 1.05D-05
 IDIUse=1 WtCom= 1.00D+00 WtEn= 0.00D+00
 Coeff-Com:  0.353D-03-0.577D-03-0.350D-02 0.112D-02 0.100D+01
 Coeff:      0.353D-03-0.577D-03-0.350D-02 0.112D-02 0.100D+01
 Gap=     0.365 Goal=   None    Shift=    0.000
 RMSDP=2.72D-06 MaxDP=6.43D-05 DE=-9.94D-06 OVMax= 9.28D-05

 Cycle   6  Pass 1  IDiag  1:
 E= -79.8404600252769     Delta-E=       -0.000000022970 Rises=F Damp=F
 DIIS: error= 1.57D-05 at cycle   6 NSaved=   6.
 NSaved= 6 IEnMin= 6 EnMin= -79.8404600252769     IErMin= 6 ErrMin= 1.57D-05
 ErrMax= 1.57D-05 EMaxC= 1.00D-01 BMatC= 6.89D-09 BMatP= 2.58D-08
 IDIUse=1 WtCom= 1.00D+00 WtEn= 0.00D+00
 Coeff-Com:  0.193D-03-0.221D-03-0.528D-02-0.133D-01 0.523D+00 0.496D+00
 Coeff:      0.193D-03-0.221D-03-0.528D-02-0.133D-01 0.523D+00 0.496D+00
 Gap=     0.365 Goal=   None    Shift=    0.000
 RMSDP=9.83D-07 MaxDP=2.08D-05 DE=-2.30D-08 OVMax= 2.93D-05

 Cycle   7  Pass 1  IDiag  1:
 E= -79.8404600319497     Delta-E=       -0.000000006673 Rises=F Damp=F
 DIIS: error= 1.22D-06 at cycle   7 NSaved=   7.
 NSaved= 7 IEnMin= 7 EnMin= -79.8404600319497     IErMin= 7 ErrMin= 1.22D-06
 ErrMax= 1.22D-06 EMaxC= 1.00D-01 BMatC= 4.73D-11 BMatP= 6.89D-09
 IDIUse=1 WtCom= 1.00D+00 WtEn= 0.00D+00
 Coeff-Com: -0.818D-05 0.510D-05-0.230D-03-0.897D-03-0.818D-02 0.666D-01
 Coeff-Com:  0.943D+00
 Coeff:     -0.818D-05 0.510D-05-0.230D-03-0.897D-03-0.818D-02 0.666D-01
 Coeff:      0.943D+00
 Gap=     0.365 Goal=   None    Shift=    0.000
 RMSDP=1.01D-07 MaxDP=1.75D-06 DE=-6.67D-09 OVMax= 2.32D-06

 Cycle   8  Pass 1  IDiag  1:
 E= -79.8404600319993     Delta-E=       -0.000000000050 Rises=F Damp=F
 DIIS: error= 8.07D-08 at cycle   8 NSaved=   8.
 NSaved= 8 IEnMin= 8 EnMin= -79.8404600319993     IErMin= 8 ErrMin= 8.07D-08
 ErrMax= 8.07D-08 EMaxC= 1.00D-01 BMatC= 3.44D-13 BMatP= 4.73D-11
 IDIUse=1 WtCom= 1.00D+00 WtEn= 0.00D+00
 Coeff-Com: -0.298D-05 0.228D-05-0.404D-04-0.206D-03-0.441D-02 0.161D-01
 Coeff-Com:  0.256D+00 0.733D+00
 Coeff:     -0.298D-05 0.228D-05-0.404D-04-0.206D-03-0.441D-02 0.161D-01
 Coeff:      0.256D+00 0.733D+00
 Gap=     0.365 Goal=   None    Shift=    0.000
 RMSDP=1.30D-08 MaxDP=1.45D-07 DE=-4.96D-11 OVMax= 2.18D-07

 Cycle   9  Pass 1  IDiag  1:
 E= -79.8404600319999     Delta-E=       -0.000000000001 Rises=F Damp=F
 DIIS: error= 1.29D-08 at cycle   9 NSaved=   9.
 NSaved= 9 IEnMin= 9 EnMin= -79.8404600319999     IErMin= 9 ErrMin= 1.29D-08
 ErrMax= 1.29D-08 EMaxC= 1.00D-01 BMatC= 9.44D-15 BMatP= 3.44D-13
 IDIUse=1 WtCom= 1.00D+00 WtEn= 0.00D+00
 Coeff-Com: -0.228D-08 0.130D-06 0.695D-05 0.106D-04-0.321D-03-0.129D-02
 Coeff-Com: -0.128D-01 0.114D+00 0.901D+00
 Coeff:     -0.228D-08 0.130D-06 0.695D-05 0.106D-04-0.321D-03-0.129D-02
 Coeff:     -0.128D-01 0.114D+00 0.901D+00
 Gap=     0.365 Goal=   None    Shift=    0.000
 RMSDP=2.06D-09 MaxDP=2.28D-08 DE=-6.25D-13 OVMax= 4.29D-08

 SCF Done:  E(RB3LYP) =  -79.8404600320     A.U. after    9 cycles
             Convg  =    0.2059D-08             -V/T =  2.0110
 KE= 7.897309618310D+01 PE=-2.679101252638D+02 EE= 6.701353302270D+01
 Leave Link  502 at Thu May 27 13:54:12 2021, MaxMem=   13107200 cpu:       4.8
 (Enter /programs/64bit/g09/g09-gfortran/bin/l601.exe)
 Copying SCF densities to generalized density rwf, IOpCl= 0 IROHF=0.

 **********************************************************************

            Population analysis using the SCF density.

 **********************************************************************

 Alpha  occ. eigenvalues --  -10.17745 -10.17717  -0.75261  -0.61305  -0.43885
 Alpha  occ. eigenvalues --   -0.43815  -0.35630  -0.34768  -0.34732
 Alpha virt. eigenvalues --    0.01743   0.03172   0.05277   0.05291   0.07953
 Alpha virt. eigenvalues --    0.08965   0.08971   0.14228   0.18965   0.19037
 Alpha virt. eigenvalues --    0.20445   0.20574   0.24540   0.29414   0.32793
 Alpha virt. eigenvalues --    0.62109   0.64316   0.64375   0.66425   0.66531
 Alpha virt. eigenvalues --    0.69234   0.92066   0.92122   0.97114   0.97180
 Alpha virt. eigenvalues --    0.99625   1.09631   1.11248   1.32037   1.32275
 Alpha virt. eigenvalues --    1.46273   1.68750   1.68995   1.89372   2.04148
 Alpha virt. eigenvalues --    2.04309   2.08643   2.08773   2.09202   2.09274
 Alpha virt. eigenvalues --    2.29154   2.29483   2.37952   2.49163   2.49543
 Alpha virt. eigenvalues --    2.66095   2.71962   2.80519   2.80568   2.91335
 Alpha virt. eigenvalues --    2.91892   3.22113   3.28194   3.36298   3.36514
 Alpha virt. eigenvalues --    3.52054   3.52105   4.33312   4.58133
          Condensed to atoms (all electrons):
              1          2          3          4          5          6
     1  C    5.102273   0.258475   0.405043   0.404465   0.405031  -0.046535
     2  C    0.258475   5.097106  -0.046334  -0.044705  -0.046341   0.405412
     3  H    0.405043  -0.046334   0.556596  -0.028386  -0.027712   0.004785
     4  H    0.404465  -0.044705  -0.028386   0.555978  -0.028365  -0.004355
     5  H    0.405031  -0.046341  -0.027712  -0.028365   0.556696  -0.004457
     6  H   -0.046535   0.405412   0.004785  -0.004355  -0.004457   0.555840
     7  H   -0.046516   0.405393  -0.004457  -0.004355   0.004781  -0.027831
     8  H   -0.047273   0.406515  -0.004501   0.004689  -0.004500  -0.027994
              7          8
     1  C   -0.046516  -0.047273
     2  C    0.405393   0.406515
     3  H   -0.004457  -0.004501
     4  H   -0.004355   0.004689
     5  H    0.004781  -0.004500
     6  H   -0.027831  -0.027994
     7  H    0.555861  -0.027994
     8  H   -0.027994   0.555688
 Mulliken atomic charges:
              1
     1  C   -0.434964
     2  C   -0.435521
     3  H    0.144966
     4  H    0.145033
     5  H    0.144866
     6  H    0.145134
     7  H    0.145117
     8  H    0.145369
 Sum of Mulliken atomic charges =  -0.00000
 Mulliken charges with hydrogens summed into heavy atoms:
              1
     1  C   -0.000100
     2  C    0.000100
 Sum of Mulliken charges with hydrogens summed into heavy atoms =  -0.00000
 Electronic spatial extent (au):  <R**2>=            148.5959
 Charge=             -0.0000 electrons
 Dipole moment (field-independent basis, Debye):
    X=              0.0004    Y=              0.0000    Z=             -0.0019  Tot=              0.0020
 Quadrupole moment (field-independent basis, Debye-Ang):
   XX=            -14.9414   YY=            -14.9497   ZZ=            -16.1990
   XY=             -0.0072   XZ=              0.0132   YZ=              0.0234
 Traceless Quadrupole moment (field-independent basis, Debye-Ang):
   XX=              0.4219   YY=              0.4137   ZZ=             -0.8356
   XY=             -0.0072   XZ=              0.0132   YZ=              0.0234
 Octapole moment (field-independent basis, Debye-Ang**2):
  XXX=             -0.0114  YYY=             -0.0090  ZZZ=            -37.5686  XYY=              0.0085
  XXY=             -0.0030  XXZ=            -11.5317  XZZ=             -0.0010  YZZ=             -0.0033
  YYZ=            -11.5343  XYZ=             -0.0020
 Hexadecapole moment (field-independent basis, Debye-Ang**3):
 XXXX=            -31.3205 YYYY=            -31.3246 ZZZZ=           -157.6289 XXXY=              0.0054
 XXXZ=             -1.3210 YYYX=              0.0003 YYYZ=              0.0020 ZZZX=              0.0118
 ZZZY=              0.0269 XXYY=            -10.4423 XXZZ=            -29.6087 YYZZ=            -29.5912
 XXYZ=              0.0006 YYXZ=              1.3186 ZZXY=              0.0167
 N-N= 4.208303602602D+01 E-N=-2.679101254292D+02  KE= 7.897309618310D+01
 No NMR shielding tensors so no spin-rotation constants.
 Leave Link  601 at Thu May 27 13:54:12 2021, MaxMem=   13107200 cpu:       0.0
 (Enter /programs/64bit/g09/g09-gfortran/bin/l701.exe)
 Compute integral first derivatives.
 ... and contract with generalized density number  0.
 Leave Link  701 at Thu May 27 13:54:12 2021, MaxMem=   13107200 cpu:       0.0
 (Enter /programs/64bit/g09/g09-gfortran/bin/l702.exe)
 L702 exits ... SP integral derivatives will be done elsewhere.
 Leave Link  702 at Thu May 27 13:54:12 2021, MaxMem=   13107200 cpu:       0.0
 (Enter /programs/64bit/g09/g09-gfortran/bin/l703.exe)
 Compute integral first derivatives, UseDBF=F ICtDFT=           0.
 Integral derivatives from FoFDir, PRISM(SPDF).
 Calling FoFJK, ICntrl=      2127 FMM=F ISym2X=0 I1Cent= 0 IOpClX= 0 NMat=1 NMatS=1 NMatT=0.
 FoFCou: FMM=F IPFlag=           0 FMFlag=      100000 FMFlg1=         800
         NFxFlg=           0 DoJE=F BraDBF=F KetDBF=F FulRan=T
         Omega=  0.000000  0.000000  1.000000  0.000000  0.000000 ICntrl=    2127 IOpCl=  0
         NMat0=    1 NMatS0=    1 NMatT0=    0 NMatD0=    1 NMtDS0=    0 NMtDT0=    0
         I1Cent=           0 NGrid=           0.
 Symmetry not used in FoFCou.
 Leave Link  703 at Thu May 27 13:54:13 2021, MaxMem=   13107200 cpu:       1.1
 (Enter /programs/64bit/g09/g09-gfortran/bin/l716.exe)
 Dipole        = 1.69592048D-04 7.26158994D-06-7.53914072D-04
 -------------------------------------------------------------------
 Center     Atomic                   Forces (Hartrees/Bohr)
 Number     Number              X              Y              Z
 -------------------------------------------------------------------
      1        6           0.000057846    0.000720441    0.012718748
      2        6          -0.000584903   -0.001045216   -0.014703043
      3        1          -0.001262935    0.000484857   -0.004927933
      4        1           0.000558293    0.000992556   -0.003272406
      5        1           0.001240092   -0.001204371   -0.004787976
      6        1           0.001632761   -0.000009615    0.005096612
      7        1          -0.000843381    0.001453319    0.005080386
      8        1          -0.000797772   -0.001391971    0.004795612
 -------------------------------------------------------------------
 Cartesian Forces:  Max     0.014703043 RMS     0.004685008
 -----------------------------------------------------------------------------------------------
                       Internal Coordinate Forces (Hartree/Bohr or radian)
  Cent   Atom   N1       Length/X         N2         Alpha/Y        N3         Beta/Z          J
 -----------------------------------------------------------------------------------------------
      1  C 
      2  C        1   0.000270(     1)
      3  H        1   0.000412(     2)      2   0.010481(     8)
      4  H        1   0.000050(     3)      2   0.007164(     9)      3   0.000025(    14)     0
      5  H        1  -0.000012(     4)      2   0.010483(    10)      3   0.000922(    15)     0
      6  H        2   0.000117(     5)      1   0.011062(    11)      3   0.000002(    16)     0
      7  H        2   0.000067(     6)      1   0.011063(    12)      6  -0.000007(    17)     0
      8  H        2   0.000046(     7)      1   0.010454(    13)      6  -0.000010(    18)     0
 -----------------------------------------------------------------------------------------------
 Internal  Forces:  Max     0.011063334 RMS     0.005898443
 Force constants in Cartesian coordinates: 
                1             2             3             4             5 
      1  0.655271D+00
      2 -0.896912D-03  0.653641D+00
      3  0.179236D-02  0.347502D-02  0.594677D+00
      4 -0.851962D-01 -0.161743D-03 -0.836971D-04  0.657408D+00
      5 -0.161747D-03 -0.853771D-01 -0.118186D-03  0.424321D-04  0.657378D+00
      6  0.000000D+00  0.266821D-05 -0.279528D+00 -0.806405D-05  0.360074D-04
      7 -0.311763D+00 -0.809067D-04  0.826224D-01  0.865951D-02 -0.163808D-05
      8 -0.243060D-03 -0.785043D-01 -0.175689D-03 -0.604886D-05  0.728161D-03
      9  0.927957D-01 -0.234725D-03 -0.104046D+00  0.251228D-01 -0.475238D-05
     10 -0.135930D+00 -0.994240D-01 -0.429824D-01  0.284583D-02  0.360758D-02
     11 -0.994418D-01 -0.250762D+00 -0.744670D-01  0.360762D-02  0.701155D-02
     12 -0.480941D-01 -0.833077D-01 -0.107206D+00 -0.124813D-01 -0.216183D-01
     13 -0.136440D+00  0.100563D+00 -0.413486D-01  0.271272D-02 -0.343629D-02
     14  0.100743D+00 -0.253056D+00  0.712858D-01 -0.343191D-02  0.666923D-02
     15 -0.464939D-01  0.800674D-01 -0.103897D+00 -0.125578D-01  0.217412D-01
     16  0.865663D-02  0.000000D+00  0.000000D+00 -0.311604D+00  0.000000D+00
     17 -0.101713D-04  0.721476D-03  0.000000D+00  0.102192D-04 -0.793648D-01
     18  0.251147D-01  0.000000D+00  0.000000D+00  0.924272D-01  0.000000D+00
     19  0.270972D-02 -0.344288D-02  0.000000D+00 -0.137397D+00  0.100533D+00
     20 -0.343302D-02  0.666815D-02  0.000000D+00  0.100525D+00 -0.253468D+00
     21 -0.125563D-01  0.217482D-01  0.000000D+00 -0.461997D-01  0.800199D-01
     22  0.269240D-02  0.344328D-02  0.000000D+00 -0.137430D+00 -0.100583D+00
     23  0.344360D-02  0.666891D-02  0.000000D+00 -0.100585D+00 -0.253576D+00
     24 -0.125579D-01 -0.217509D-01  0.000000D+00 -0.462194D-01 -0.800553D-01
                6             7             8             9            10 
      6  0.589678D+00
      7  0.000000D+00  0.313243D+00
      8  0.000000D+00  0.954090D-04  0.585443D-01
      9  0.000000D+00 -0.885038D-01  0.276799D-03  0.869830D-01
     10  0.000000D+00 -0.514792D-02 -0.272107D-01 -0.149351D-01  0.121423D+00
     11  0.000000D+00  0.171614D-02  0.942228D-02  0.497883D-02  0.108637D+00
     12  0.000000D+00  0.298568D-02  0.149468D-01  0.866201D-02  0.461455D-01
     13  0.000000D+00 -0.499095D-02  0.273643D-01 -0.144797D-01  0.168089D-01
     14  0.000000D+00 -0.172900D-02  0.980963D-02 -0.501615D-02  0.143900D-01
     15  0.000000D+00  0.289574D-02 -0.150479D-01  0.840107D-02  0.117720D-01
     16  0.827499D-01  0.000000D+00  0.000000D+00  0.000000D+00  0.000000D+00
     17 -0.183277D-05  0.000000D+00  0.602134D-03  0.000000D+00  0.524470D-03
     18 -0.103387D+00  0.000000D+00  0.000000D+00  0.000000D+00  0.000000D+00
     19 -0.413611D-01  0.000000D+00 -0.521420D-03  0.000000D+00 -0.454167D-03
     20  0.716383D-01  0.000000D+00 -0.301042D-03  0.000000D+00 -0.262214D-03
     21 -0.103367D+00  0.000000D+00  0.000000D+00  0.000000D+00  0.000000D+00
     22 -0.413802D-01  0.000000D+00  0.521483D-03  0.000000D+00  0.454222D-03
     23 -0.716752D-01  0.000000D+00 -0.301079D-03  0.000000D+00 -0.262245D-03
     24 -0.103396D+00  0.000000D+00  0.000000D+00  0.000000D+00  0.000000D+00
               11            12            13            14            15 
     11  0.246866D+00
     12  0.799264D-01  0.898870D-01
     13 -0.145190D-01  0.114443D-01  0.121910D+00
     14 -0.125371D-01  0.100528D-01 -0.109972D+00  0.249114D+00
     15 -0.104383D-01  0.865664D-02  0.443840D-01 -0.763225D-01  0.868392D-01
     16  0.000000D+00  0.000000D+00  0.000000D+00  0.000000D+00  0.000000D+00
     17 -0.302803D-03  0.000000D+00 -0.521142D-03 -0.300882D-03  0.000000D+00
     18  0.000000D+00  0.000000D+00  0.000000D+00  0.000000D+00  0.000000D+00
     19  0.262214D-03  0.000000D+00  0.451285D-03  0.260550D-03  0.000000D+00
     20  0.151389D-03  0.000000D+00  0.260550D-03  0.150429D-03  0.000000D+00
     21  0.000000D+00  0.000000D+00  0.000000D+00  0.000000D+00  0.000000D+00
     22 -0.262245D-03  0.000000D+00 -0.451339D-03 -0.260581D-03  0.000000D+00
     23  0.151408D-03  0.000000D+00  0.260581D-03  0.150447D-03  0.000000D+00
     24  0.000000D+00  0.000000D+00  0.000000D+00  0.000000D+00  0.000000D+00
               16            17            18            19            20 
     16  0.312933D+00
     17  0.000000D+00  0.590210D-01
     18 -0.885702D-01  0.000000D+00  0.865009D-01
     19 -0.499274D-02  0.273657D-01 -0.144850D-01  0.122469D+00
     20 -0.172437D-02  0.981133D-02 -0.500277D-02 -0.109911D+00  0.249383D+00
     21  0.290999D-02 -0.150458D-01  0.844251D-02  0.442706D-01 -0.766789D-01
     22 -0.499333D-02 -0.273691D-01 -0.144867D-01  0.172141D-01  0.145457D-01
     23  0.172459D-02  0.981258D-02  0.500339D-02 -0.145456D-01 -0.123952D-01
     24  0.291033D-02  0.150477D-01  0.844349D-02  0.115755D-01  0.100434D-01
               21            22            23            24 
     21  0.864815D-01
     22  0.115755D-01  0.122514D+00
     23 -0.100433D-01  0.109964D+00  0.249489D+00
     24  0.844277D-02  0.442915D-01  0.767151D-01  0.865093D-01
 Force constants in internal coordinates: 
                1             2             3             4             5 
      1  0.279528D+00
      2  0.000000D+00  0.343749D+00
      3  0.000000D+00  0.000000D+00  0.343211D+00
      4  0.000000D+00  0.000000D+00  0.000000D+00  0.342984D+00
      5  0.000000D+00  0.000000D+00  0.000000D+00  0.000000D+00  0.343462D+00
      6  0.000000D+00  0.000000D+00  0.000000D+00  0.000000D+00  0.000000D+00
      7  0.000000D+00  0.000000D+00  0.000000D+00  0.000000D+00  0.000000D+00
      8  0.000000D+00  0.000000D+00  0.000000D+00  0.000000D+00  0.000000D+00
      9  0.000000D+00  0.000000D+00  0.000000D+00  0.000000D+00  0.000000D+00
     10  0.000000D+00  0.000000D+00  0.000000D+00  0.000000D+00  0.000000D+00
     11  0.000000D+00  0.000000D+00  0.000000D+00  0.000000D+00  0.000000D+00
     12  0.000000D+00  0.000000D+00  0.000000D+00  0.000000D+00  0.000000D+00
     13  0.000000D+00  0.000000D+00  0.000000D+00  0.000000D+00  0.000000D+00
     14  0.000000D+00  0.000000D+00  0.000000D+00  0.000000D+00  0.000000D+00
     15  0.000000D+00  0.000000D+00  0.000000D+00  0.000000D+00  0.000000D+00
     16  0.000000D+00  0.000000D+00  0.000000D+00  0.000000D+00  0.000000D+00
     17  0.000000D+00  0.000000D+00  0.000000D+00  0.000000D+00  0.000000D+00
     18  0.000000D+00  0.000000D+00  0.000000D+00  0.000000D+00  0.000000D+00
                6             7             8             9            10 
      6  0.343359D+00
      7  0.000000D+00  0.343510D+00
      8  0.000000D+00  0.000000D+00  0.241302D+00
      9  0.000000D+00  0.000000D+00  0.416809D-01  0.240598D+00
     10  0.000000D+00  0.000000D+00  0.401835D-01  0.416807D-01  0.241301D+00
     11  0.000000D+00  0.000000D+00  0.000000D+00  0.000000D+00  0.000000D+00
     12  0.000000D+00  0.000000D+00  0.000000D+00  0.000000D+00  0.000000D+00
     13  0.000000D+00  0.000000D+00  0.000000D+00  0.000000D+00  0.000000D+00
     14  0.000000D+00  0.000000D+00 -0.655205D-01  0.000000D+00  0.655201D-01
     15  0.000000D+00  0.000000D+00  0.643326D-01 -0.642846D-01 -0.118223D-02
     16  0.000000D+00  0.000000D+00  0.000000D+00  0.000000D+00  0.000000D+00
     17  0.000000D+00  0.000000D+00  0.000000D+00  0.000000D+00  0.000000D+00
     18  0.000000D+00  0.000000D+00  0.000000D+00  0.000000D+00  0.000000D+00
               11            12            13            14            15 
     11  0.239256D+00
     12  0.403787D-01  0.239256D+00
     13  0.403785D-01  0.403783D-01  0.239256D+00
     14  0.000000D+00  0.000000D+00  0.000000D+00  0.221608D+00
     15  0.000000D+00  0.000000D+00  0.000000D+00 -0.107364D+00  0.223573D+00
     16  0.000000D+00  0.000000D+00  0.000000D+00  0.690000D-02  0.690000D-02
     17 -0.643192D-01  0.000000D+00  0.643192D-01  0.230000D-02  0.230000D-02
     18  0.643191D-01 -0.643190D-01  0.000000D+00  0.230000D-02  0.230000D-02
               16            17            18 
     16  0.207000D-01
     17  0.690002D-02  0.225498D+00
     18  0.689999D-02 -0.109299D+00  0.225498D+00
 Leave Link  716 at Thu May 27 13:54:13 2021, MaxMem=   13107200 cpu:       0.0
 (Enter /programs/64bit/g09/g09-gfortran/bin/l103.exe)

 GradGradGradGradGradGradGradGradGradGradGradGradGradGradGradGradGradGrad
 Berny optimization.
 Search for a local minimum.
 Step number   1 out of a maximum of    2
 All quantities printed in internal units (Hartrees-Bohrs-Radians)
 Second derivative matrix not updated -- first step.
 The second derivative matrix:
                          d1        a1        t1        d2        a2
           d1           0.27953
           a1          -0.00000   0.24130
           t1           0.00000  -0.06552   0.22161
           d2           0.00000  -0.00000   0.00000   0.34375
           a2          -0.00000   0.04168  -0.00000   0.00000   0.24060
           t2           0.00000   0.06433  -0.10736  -0.00000  -0.06428
           d3           0.00000   0.00000  -0.00000   0.00000  -0.00000
           d4           0.00000   0.00000   0.00000  -0.00000   0.00000
           a3          -0.00000   0.04018   0.06552  -0.00000   0.04168
           d5           0.00000  -0.00000  -0.00000   0.00000   0.00000
           a4          -0.00000  -0.00000   0.00000   0.00000  -0.00000
           t3           0.00000  -0.00000   0.00690   0.00000   0.00000
           d6           0.00000   0.00000  -0.00000   0.00000  -0.00000
           a5          -0.00000  -0.00000   0.00000   0.00000  -0.00000
           t4           0.00000  -0.00000   0.00230   0.00000   0.00000
           d7           0.00000   0.00000  -0.00000   0.00000  -0.00000
           a6           0.00000  -0.00000   0.00000   0.00000   0.00000
           t5           0.00000   0.00000   0.00230   0.00000   0.00000
                          t2        d3        d4        a3        d5
           t2           0.22357
           d3           0.00000   0.34321
           d4           0.00000  -0.00000   0.34298
           a3          -0.00118   0.00000   0.00000   0.24130
           d5          -0.00000  -0.00000  -0.00000   0.00000   0.34346
           a4           0.00000   0.00000   0.00000  -0.00000  -0.00000
           t3           0.00690  -0.00000  -0.00000   0.00000  -0.00000
           d6          -0.00000   0.00000  -0.00000   0.00000  -0.00000
           a5           0.00000   0.00000   0.00000  -0.00000   0.00000
           t4           0.00230  -0.00000  -0.00000   0.00000   0.00000
           d7           0.00000   0.00000  -0.00000   0.00000   0.00000
           a6           0.00000  -0.00000   0.00000  -0.00000   0.00000
           t5           0.00230  -0.00000  -0.00000   0.00000  -0.00000
                          a4        t3        d6        a5        t4
           a4           0.23926
           t3           0.00000   0.02070
           d6          -0.00000   0.00000   0.34336
           a5           0.04038  -0.00000   0.00000   0.23926
           t4          -0.06432   0.00690   0.00000  -0.00000   0.22550
           d7           0.00000   0.00000  -0.00000   0.00000  -0.00000
           a6           0.04038  -0.00000  -0.00000   0.04038   0.06432
           t5           0.06432   0.00690   0.00000  -0.06432  -0.10930
                          d7        a6        t5
           d7           0.34351
           a6          -0.00000   0.23926
           t5           0.00000   0.00000   0.22550
     Eigenvalues --- 1000.000001000.000001000.000001000.000001000.00000
     Eigenvalues --- 1000.000001000.000001000.000001000.000001000.00000
     Eigenvalues --- 1000.000001000.000001000.000001000.000001000.00000
     Eigenvalues --- 1000.000001000.000001000.00000
 Angle between quadratic step and forces=  90.00 degrees.
 Linear search not attempted -- first point.
 Variable       Old X    -DE/DX   Delta X   Delta X   Delta X     New X
                                 (Linear)    (Quad)   (Total)
    d1        2.92242   0.00027   0.00000   0.00000   0.00000   2.92242
    a1        1.90273   0.01048   0.00000   0.00000   0.00000   1.90273
    t1        2.09440   0.00002   0.00000   0.00000   0.00000   2.09440
    d2        2.06702   0.00041   0.00000   0.00000   0.00000   2.06702
    a2        1.92017   0.00716   0.00000   0.00000   0.00000   1.92017
    t2       -2.09440   0.00092   0.00000   0.00000   0.00000  -2.09440
    d3        2.06792   0.00005   0.00000   0.00000   0.00000   2.06792
    d4        2.06829  -0.00001   0.00000   0.00000   0.00000   2.06829
    a3        1.90273   0.01048   0.00000   0.00000   0.00000   1.90273
    d5        2.06750   0.00012   0.00000   0.00000   0.00000   2.06750
    a4        1.90273   0.01106   0.00000   0.00000   0.00000   1.90273
    t3        3.14159   0.00000   0.00000   0.00000   0.00000   3.14159
    d6        2.06767   0.00007   0.00000   0.00000   0.00000   2.06767
    a5        1.90273   0.01106   0.00000   0.00000   0.00000   1.90273
    t4        2.09440  -0.00001   0.00000   0.00000   0.00000   2.09440
    d7        2.06742   0.00005   0.00000   0.00000   0.00000   2.06742
    a6        1.90272   0.01045   0.00000   0.00000   0.00000   1.90272
    t5       -2.09440  -0.00001   0.00000   0.00000   0.00000  -2.09440
         Item               Value     Threshold  Converged?
 Maximum Force            0.000000     0.000450     YES
 RMS     Force            0.000000     0.000300     YES
 Maximum Displacement     0.000000     0.001800     YES
 RMS     Displacement     0.000000     0.001200     YES
 Predicted change in Energy=-0.000000D+00
 Optimization completed.
    -- Stationary point found.
                       ----------------------------
                       !   Optimized Parameters   !
                       ! (Angstroms and Degrees)  !
 ----------------------                            ----------------------
 !      Name          Value   Derivative information (Atomic Units)     !
 ------------------------------------------------------------------------
 !       d1          1.5465   -DE/DX =    0.0003                        !
 !       a1        109.0184   -DE/DX =    0.0105                        !
 !       t1        120.0      -DE/DX =    0.0                           !
 !       d2          1.0938   -DE/DX =    0.0004                        !
 !       a2        110.0177   -DE/DX =    0.0072                        !
 !       t2       -120.0      -DE/DX =    0.0009                        !
 !       d3          1.0943   -DE/DX =    0.0001                        !
 !       d4          1.0945   -DE/DX =    0.0                           !
 !       a3        109.0183   -DE/DX =    0.0105                        !
 !       d5          1.0941   -DE/DX =    0.0001                        !
 !       a4        109.0182   -DE/DX =    0.0111                        !
 !       t3        180.0      -DE/DX =    0.0                           !
 !       d6          1.0942   -DE/DX =    0.0001                        !
 !       a5        109.0182   -DE/DX =    0.0111                        !
 !       t4        120.0      -DE/DX =    0.0                           !
 !       d7          1.094    -DE/DX =    0.0                           !
 !       a6        109.018    -DE/DX =    0.0105                        !
 !       t5       -120.0      -DE/DX =    0.0                           !
 ------------------------------------------------------------------------
 GradGradGradGradGradGradGradGradGradGradGradGradGradGradGradGradGradGrad

 Leave Link  103 at Thu May 27 13:54:13 2021, MaxMem=   13107200 cpu:       0.0
 (Enter /programs/64bit/g09/g09-gfortran/bin/l9999.exe)
 1\1\GINC-MOLMOD\Force\RB3LYP\6-31+G(d,p)\C2H6\OSPITE\27-May-2021\1\\#p
  b3lyp/6-31+g(d,p) force nosym\\c2h6 molecule\\0,1\C\C,1,d1\H,1,d2,2,a
 1\H,1,d3,2,a2,3,t1,0\H,1,d4,2,a3,3,t2,0\H,2,d5,1,a4,3,t3,0\H,2,d6,1,a5
 ,6,t4,0\H,2,d7,1,a6,6,t5,0\\d1=1.54647641\a1=109.01839587\t1=120.00003
 053\d2=1.09382014\a2=110.01770662\t2=-120.00003484\d3=1.09429393\d4=1.
 09449436\a3=109.01830353\d5=1.0940728\a4=109.01822712\t3=179.99999825\
 d6=1.09416332\a5=109.01817575\t4=120.00002414\d7=1.09403019\a6=109.018
 03214\t5=-120.00001899\\Version=EM64L-G09RevA.02\HF=-79.84046\RMSD=2.0
 59e-09\RMSF=4.685e-03\Dipole=0.0001696,0.0000073,-0.0007539\Quadrupole
 =0.3137036,0.3075582,-0.6212617,-0.0053718,0.0098292,0.0173664\PG=C01 
 [X(C2H6)]\\@


 LAWS OF PROGRAMMING DEFINITION:  A WORKING PROGRAM
                                  IS ONE THAT HAS
                                  ONLY UNOBSERVED
                                  BUGS.
 Job cpu time:  0 days  0 hours  0 minutes  6.8 seconds.
 File lengths (MBytes):  RWF=      5 Int=      0 D2E=      0 Chk=      1 Scr=      1
 Normal termination of Gaussian 09 at Thu May 27 13:54:13 2021.
