 Entering Gaussian System, Link 0=g09
 Input=c2h6_007.com
 Output=c2h6_007.log
 Initial command:
 /programs/64bit/g09/g09-gfortran/bin/l1.exe /data/scratch/Gau-17039.inp -scrdir=/data/scratch/
 Entering Link 1 = /programs/64bit/g09/g09-gfortran/bin/l1.exe PID=     17040.
  
 Copyright (c) 1988,1990,1992,1993,1995,1998,2003,2009, Gaussian, Inc.
                  All Rights Reserved.
  
 This is part of the Gaussian(R) 09 program.  It is based on
 the Gaussian(R) 03 system (copyright 2003, Gaussian, Inc.),
 the Gaussian(R) 98 system (copyright 1998, Gaussian, Inc.),
 the Gaussian(R) 94 system (copyright 1995, Gaussian, Inc.),
 the Gaussian 92(TM) system (copyright 1992, Gaussian, Inc.),
 the Gaussian 90(TM) system (copyright 1990, Gaussian, Inc.),
 the Gaussian 88(TM) system (copyright 1988, Gaussian, Inc.),
 the Gaussian 86(TM) system (copyright 1986, Carnegie Mellon
 University), and the Gaussian 82(TM) system (copyright 1983,
 Carnegie Mellon University). Gaussian is a federally registered
 trademark of Gaussian, Inc.
  
 This software contains proprietary and confidential information,
 including trade secrets, belonging to Gaussian, Inc.
  
 This software is provided under written license and may be
 used, copied, transmitted, or stored only in accord with that
 written license.
  
 The following legend is applicable only to US Government
 contracts under FAR:
  
                    RESTRICTED RIGHTS LEGEND
  
 Use, reproduction and disclosure by the US Government is
 subject to restrictions as set forth in subparagraphs (a)
 and (c) of the Commercial Computer Software - Restricted
 Rights clause in FAR 52.227-19.
  
 Gaussian, Inc.
 340 Quinnipiac St., Bldg. 40, Wallingford CT 06492
  
  
 ---------------------------------------------------------------
 Warning -- This program may not be used in any manner that
 competes with the business of Gaussian, Inc. or will provide
 assistance to any competitor of Gaussian, Inc.  The licensee
 of this program is prohibited from giving any competitor of
 Gaussian, Inc. access to this program.  By using this program,
 the user acknowledges that Gaussian, Inc. is engaged in the
 business of creating and licensing software in the field of
 computational chemistry and represents and warrants to the
 licensee that it is not a competitor of Gaussian, Inc. and that
 it will not use this program in any manner prohibited above.
 ---------------------------------------------------------------
  

 Cite this work as:
 Gaussian 09, Revision A.02,
 M. J. Frisch, G. W. Trucks, H. B. Schlegel, G. E. Scuseria, 
 M. A. Robb, J. R. Cheeseman, G. Scalmani, V. Barone, B. Mennucci, 
 G. A. Petersson, H. Nakatsuji, M. Caricato, X. Li, H. P. Hratchian, 
 A. F. Izmaylov, J. Bloino, G. Zheng, J. L. Sonnenberg, M. Hada, 
 M. Ehara, K. Toyota, R. Fukuda, J. Hasegawa, M. Ishida, T. Nakajima, 
 Y. Honda, O. Kitao, H. Nakai, T. Vreven, J. A. Montgomery, Jr., 
 J. E. Peralta, F. Ogliaro, M. Bearpark, J. J. Heyd, E. Brothers, 
 K. N. Kudin, V. N. Staroverov, R. Kobayashi, J. Normand, 
 K. Raghavachari, A. Rendell, J. C. Burant, S. S. Iyengar, J. Tomasi, 
 M. Cossi, N. Rega, J. M. Millam, M. Klene, J. E. Knox, J. B. Cross, 
 V. Bakken, C. Adamo, J. Jaramillo, R. Gomperts, R. E. Stratmann, 
 O. Yazyev, A. J. Austin, R. Cammi, C. Pomelli, J. W. Ochterski, 
 R. L. Martin, K. Morokuma, V. G. Zakrzewski, G. A. Voth, 
 P. Salvador, J. J. Dannenberg, S. Dapprich, A. D. Daniels, 
 O. Farkas, J. B. Foresman, J. V. Ortiz, J. Cioslowski, 
 and D. J. Fox, Gaussian, Inc., Wallingford CT, 2009.
 
 ******************************************
 Gaussian 09:  EM64L-G09RevA.02 11-Jun-2009
                27-May-2021 
 ******************************************
 %chk=c2h6_007.chk
 %mem=100MB
 --------------------------------
 #p b3lyp/6-31+g(d,p) force nosym
 --------------------------------
 1/10=7,30=1,38=1/1,3;
 2/12=2,15=1,17=6,18=5,40=1/2;
 3/5=1,6=6,7=111,11=2,16=1,25=1,30=1,71=1,74=-5/1,2,3;
 4//1;
 5/5=2,38=5/2;
 6/7=2,8=2,9=2,10=2,28=1/1;
 7/29=1,30=1/1,2,3,16;
 1/10=7,30=1/3;
 99//99;
 Leave Link    1 at Thu May 27 13:50:49 2021, MaxMem=   13107200 cpu:       0.0
 (Enter /programs/64bit/g09/g09-gfortran/bin/l101.exe)
 -------------
 c2h6 molecule
 -------------
 Symbolic Z-matrix:
 Charge =  0 Multiplicity = 1
 C1
 C2                   1    d1
 H3                   1    d2       2    a1
 H4                   1    d3       2    a2       3    t1       0
 H5                   1    d4       2    a3       3    t2       0
 H6                   2    d5       1    a4       3    t3       0
 H7                   2    d6       1    a5       6    t4       0
 H8                   2    d7       1    a6       6    t5       0
       Variables:
       Constants:
  d1                    3.50854                  
  a1                  108.99955                  
  t1                  120.00002                  
  d2                    1.09082                  
  a2                  109.99934                  
  t2                 -119.99997                  
  d3                    1.09082                  
  d4                    1.09043                  
  a3                  108.99947                  
  d5                    1.09046                  
  a4                  108.99958                  
  t3                  180.                       
  d6                    1.09037                  
  a5                  108.99951                  
  t4                  120.00002                  
  d7                    1.09033                  
  a6                  108.9995                   
  t5                 -120.00001                  
 
 NAtoms=      8 NQM=      8 NQMF=      0 NMic=      0 NMicF=      0 NTot=      8.
                    Isotopes and Nuclear Properties:
 (Nuclear quadrupole moments (NQMom) in fm**2, nuclear magnetic moments (NMagM)
  in nuclear magnetons)

  Atom         1           2           3           4           5           6           7           8
 IAtWgt=          12          12           1           1           1           1           1           1
 AtmWgt=  12.0000000  12.0000000   1.0078250   1.0078250   1.0078250   1.0078250   1.0078250   1.0078250
 NucSpn=           0           0           1           1           1           1           1           1
 AtZEff=   0.0000000   0.0000000   0.0000000   0.0000000   0.0000000   0.0000000   0.0000000   0.0000000
 NQMom=    0.0000000   0.0000000   0.0000000   0.0000000   0.0000000   0.0000000   0.0000000   0.0000000
 NMagM=    0.0000000   0.0000000   2.7928460   2.7928460   2.7928460   2.7928460   2.7928460   2.7928460
 Leave Link  101 at Thu May 27 13:50:49 2021, MaxMem=   13107200 cpu:       0.0
 (Enter /programs/64bit/g09/g09-gfortran/bin/l103.exe)

 GradGradGradGradGradGradGradGradGradGradGradGradGradGradGradGradGradGrad
 Berny optimization.
 Initialization pass.
                       ----------------------------
                       !    Initial Parameters    !
                       ! (Angstroms and Degrees)  !
 ----------------------                            ----------------------
 !      Name          Value   Derivative information (Atomic Units)     !
 ------------------------------------------------------------------------
 !       d1          3.5085   Frozen                                    !
 !       a1        108.9995   Frozen                                    !
 !       t1        120.0      Frozen                                    !
 !       d2          1.0908   Frozen                                    !
 !       a2        109.9993   Frozen                                    !
 !       t2       -120.0      Frozen                                    !
 !       d3          1.0908   Frozen                                    !
 !       d4          1.0904   Frozen                                    !
 !       a3        108.9995   Frozen                                    !
 !       d5          1.0905   Frozen                                    !
 !       a4        108.9996   Frozen                                    !
 !       t3        180.0      Frozen                                    !
 !       d6          1.0904   Frozen                                    !
 !       a5        108.9995   Frozen                                    !
 !       t4        120.0      Frozen                                    !
 !       d7          1.0903   Frozen                                    !
 !       a6        108.9995   Frozen                                    !
 !       t5       -120.0      Frozen                                    !
 ------------------------------------------------------------------------
 Trust Radius=3.00D-01 FncErr=1.00D-07 GrdErr=1.00D-07
 Number of steps in this run=   2 maximum allowed number of steps=   2.
 GradGradGradGradGradGradGradGradGradGradGradGradGradGradGradGradGradGrad

 Leave Link  103 at Thu May 27 13:50:49 2021, MaxMem=   13107200 cpu:       0.0
 (Enter /programs/64bit/g09/g09-gfortran/bin/l202.exe)
                          Input orientation:                          
 ---------------------------------------------------------------------
 Center     Atomic      Atomic             Coordinates (Angstroms)
 Number     Number       Type             X           Y           Z
 ---------------------------------------------------------------------
      1          6           0        0.000000    0.000000    0.000000
      2          6           0        0.000000    0.000000    3.508544
      3          1           0        1.031394    0.000000   -0.355128
      4          1           0       -0.512520   -0.887709   -0.373070
      5          1           0       -0.515512    0.892894   -0.355000
      6          1           0       -1.031054    0.000000    3.863556
      7          1           0        0.515483   -0.892841    3.863524
      8          1           0        0.515468    0.892815    3.863513
 ---------------------------------------------------------------------
                    Distance matrix (angstroms):
                    1          2          3          4          5
     1  C    0.000000
     2  C    3.508544   0.000000
     3  H    1.090820   3.998967   0.000000
     4  H    1.090819   4.014677   1.781016   0.000000
     5  H    1.090430   3.998748   1.786107   1.780698   0.000000
     6  H    3.998767   1.090461   4.695848   4.359577   4.342725
     7  H    3.998713   1.090366   4.342851   4.359535   4.695502
     8  H    3.998695   1.090335   4.342837   4.709105   4.342669
                    6          7          8
     6  H    0.000000
     7  H    1.785761   0.000000
     8  H    1.785735   1.785657   0.000000
 Symmetry turned off by external request.
 Stoichiometry    C2H6
 Framework group  C1[X(C2H6)]
 Deg. of freedom    18
 Full point group                 C1      NOp   1
 Rotational constants (GHZ):     78.7674271      4.8574782      4.8568728
 Leave Link  202 at Thu May 27 13:50:49 2021, MaxMem=   13107200 cpu:       0.0
 (Enter /programs/64bit/g09/g09-gfortran/bin/l301.exe)
 Standard basis: 6-31+G(d,p) (6D, 7F)
 Ernie: Thresh=  0.10000D-02 Tol=  0.10000D-05 Strict=F.
 Integral buffers will be    131072 words long.
 Raffenetti 2 integral format.
 Two-electron integral symmetry is turned off.
    68 basis functions,   106 primitive gaussians,    68 cartesian basis functions
     9 alpha electrons        9 beta electrons
       nuclear repulsion energy        30.5069225681 Hartrees.
 IExCor=  402 DFT=T Ex+Corr=B3LYP ExCW=0 ScaHFX=  0.200000
 ScaDFX=  0.800000  0.720000  1.000000  0.810000 ScalE2=  1.000000  1.000000
 IRadAn=      0 IRanWt=     -1 IRanGd=            0 ICorTp=0
 NAtoms=    8 NActive=    8 NUniq=    8 SFac= 7.50D-01 NAtFMM=   80 NAOKFM=F Big=F
 Leave Link  301 at Thu May 27 13:50:49 2021, MaxMem=   13107200 cpu:       0.0
 (Enter /programs/64bit/g09/g09-gfortran/bin/l302.exe)
 NPDir=0 NMtPBC=     1 NCelOv=     1 NCel=       1 NClECP=     1 NCelD=      1
         NCelK=      1 NCelE2=     1 NClLst=     1 CellRange=     0.0.
 One-electron integrals computed using PRISM.
 NBasis=    68 RedAO= T  NBF=    68
 NBsUse=    68 1.00D-06 NBFU=    68
 Precomputing XC quadrature grid using
 IXCGrd= 2 IRadAn=           0 IRanWt=          -1 IRanGd=           0 AccXCQ= 1.00D-10.
 NRdTot=     518 NPtTot=       65100 NUsed=       68843 NTot=       68875
 NSgBfM=    68    68    68    68    68 NAtAll=     8     8.
 Leave Link  302 at Thu May 27 13:50:49 2021, MaxMem=   13107200 cpu:       0.1
 (Enter /programs/64bit/g09/g09-gfortran/bin/l303.exe)
 DipDrv:  MaxL=1.
 Leave Link  303 at Thu May 27 13:50:49 2021, MaxMem=   13107200 cpu:       0.0
 (Enter /programs/64bit/g09/g09-gfortran/bin/l401.exe)
 Harris functional with IExCor=  402 diagonalized for initial guess.
 ExpMin= 4.38D-02 ExpMax= 3.05D+03 ExpMxC= 4.57D+02 IAcc=2 IRadAn=         0 AccDes= 0.00D+00
 HarFok:  IExCor=  402 AccDes= 0.00D+00 IRadAn=         0 IDoV= 1
 ScaDFX=  1.000000  1.000000  1.000000  1.000000
 FoFCou: FMM=F IPFlag=           0 FMFlag=      100000 FMFlg1=           0
         NFxFlg=           0 DoJE=T BraDBF=F KetDBF=T FulRan=T
         Omega=  0.000000  0.000000  1.000000  0.000000  0.000000 ICntrl=     500 IOpCl=  0
         NMat0=    1 NMatS0=    1 NMatT0=    0 NMatD0=    1 NMtDS0=    0 NMtDT0=    0
         I1Cent=           4 NGrid=           0.
 Symmetry not used in FoFCou.
 Harris En= -79.6878188386350    
 Leave Link  401 at Thu May 27 13:50:50 2021, MaxMem=   13107200 cpu:       0.9
 (Enter /programs/64bit/g09/g09-gfortran/bin/l502.exe)
 Closed shell SCF:
 Requested convergence on RMS density matrix=1.00D-08 within 128 cycles.
 Requested convergence on MAX density matrix=1.00D-06.
 Requested convergence on             energy=1.00D-06.
 No special actions if energy rises.
 Using DIIS extrapolation, IDIIS=  1040.
 Two-electron integral symmetry not used.
        68758 words used for storage of precomputed grid.
 Keep R1 ints in memory in canonical form, NReq=3743143.
 IEnd=      101608 IEndB=      101608 NGot=    13107200 MDV=    10273866
 LenX=    10273866 LenY=    10268801
 Symmetry not used in FoFDir.
 MinBra= 0 MaxBra= 2 Meth= 1.
 IRaf=       0 NMat=   1 IRICut=       1 DoRegI=T DoRafI=F ISym2E= 0 JSym2E=0.

 Cycle   1  Pass 1  IDiag  1:
 E= -79.5537651131260    
 DIIS: error= 3.20D-02 at cycle   1 NSaved=   1.
 NSaved= 1 IEnMin= 1 EnMin= -79.5537651131260     IErMin= 1 ErrMin= 3.20D-02
 ErrMax= 3.20D-02 EMaxC= 1.00D-01 BMatC= 6.92D-02 BMatP= 6.92D-02
 IDIUse=3 WtCom= 6.80D-01 WtEn= 3.20D-01
 Coeff-Com:  0.100D+01
 Coeff-En:   0.100D+01
 Coeff:      0.100D+01
 Gap=     0.083 Goal=   None    Shift=    0.000
 GapD=    0.083 DampG=0.500 DampE=0.500 DampFc=0.2500 IDamp=-1.
 Damping current iteration by 2.50D-01
 RMSDP=6.87D-03 MaxDP=1.07D-01              OVMax= 2.30D-01

 Cycle   2  Pass 1  IDiag  1:
 E= -79.5852927905855     Delta-E=       -0.031527677460 Rises=F Damp=T
 DIIS: error= 1.54D-02 at cycle   2 NSaved=   2.
 NSaved= 2 IEnMin= 2 EnMin= -79.5852927905855     IErMin= 2 ErrMin= 1.54D-02
 ErrMax= 1.54D-02 EMaxC= 1.00D-01 BMatC= 1.70D-02 BMatP= 6.92D-02
 IDIUse=3 WtCom= 8.46D-01 WtEn= 1.54D-01
 Coeff-Com: -0.856D+00 0.186D+01
 Coeff-En:   0.000D+00 0.100D+01
 Coeff:     -0.725D+00 0.172D+01
 Gap=     0.078 Goal=   None    Shift=    0.000
 RMSDP=2.69D-03 MaxDP=6.92D-02 DE=-3.15D-02 OVMax= 2.05D-01

 Cycle   3  Pass 1  IDiag  1:
 E= -79.6181272454831     Delta-E=       -0.032834454898 Rises=F Damp=F
 DIIS: error= 2.60D-02 at cycle   3 NSaved=   3.
 NSaved= 3 IEnMin= 3 EnMin= -79.6181272454831     IErMin= 2 ErrMin= 1.54D-02
 ErrMax= 2.60D-02 EMaxC= 1.00D-01 BMatC= 1.31D-02 BMatP= 1.70D-02
 IDIUse=3 WtCom= 7.40D-01 WtEn= 2.60D-01
 Coeff-Com: -0.630D+00 0.138D+01 0.251D+00
 Coeff-En:   0.000D+00 0.000D+00 0.100D+01
 Coeff:     -0.466D+00 0.102D+01 0.446D+00
 Gap=     0.060 Goal=   None    Shift=    0.000
 RMSDP=5.23D-03 MaxDP=1.34D-01 DE=-3.28D-02 OVMax= 4.07D-01

 Cycle   4  Pass 1  IDiag  1:
 E= -79.5253323011297     Delta-E=        0.092794944353 Rises=F Damp=F
 DIIS: error= 5.26D-02 at cycle   4 NSaved=   4.
 NSaved= 4 IEnMin= 3 EnMin= -79.6181272454831     IErMin= 2 ErrMin= 1.54D-02
 ErrMax= 5.26D-02 EMaxC= 1.00D-01 BMatC= 6.47D-02 BMatP= 1.31D-02
 IDIUse=2 WtCom= 0.00D+00 WtEn= 1.00D+00
 Coeff-En:   0.000D+00 0.000D+00 0.726D+00 0.274D+00
 Coeff:      0.000D+00 0.000D+00 0.726D+00 0.274D+00
 Gap=     0.067 Goal=   None    Shift=    0.000
 RMSDP=2.67D-03 MaxDP=6.78D-02 DE= 9.28D-02 OVMax= 2.08D-01

 Cycle   5  Pass 1  IDiag  1:
 E= -79.6297618844301     Delta-E=       -0.104429583300 Rises=F Damp=F
 DIIS: error= 1.83D-02 at cycle   5 NSaved=   5.
 NSaved= 5 IEnMin= 5 EnMin= -79.6297618844301     IErMin= 2 ErrMin= 1.54D-02
 ErrMax= 1.83D-02 EMaxC= 1.00D-01 BMatC= 6.12D-03 BMatP= 1.31D-02
 IDIUse=3 WtCom= 8.17D-01 WtEn= 1.83D-01
 Coeff-Com:  0.104D-01-0.118D-01 0.339D+00-0.769D-01 0.740D+00
 Coeff-En:   0.000D+00 0.000D+00 0.391D+00 0.000D+00 0.609D+00
 Coeff:      0.848D-02-0.966D-02 0.348D+00-0.628D-01 0.716D+00
 Gap=     0.073 Goal=   None    Shift=    0.000
 RMSDP=1.06D-03 MaxDP=2.68D-02 DE=-1.04D-01 OVMax= 8.30D-02

 Cycle   6  Pass 1  IDiag  1:
 E= -79.6398272629677     Delta-E=       -0.010065378538 Rises=F Damp=F
 DIIS: error= 5.37D-04 at cycle   6 NSaved=   6.
 NSaved= 6 IEnMin= 6 EnMin= -79.6398272629677     IErMin= 6 ErrMin= 5.37D-04
 ErrMax= 5.37D-04 EMaxC= 1.00D-01 BMatC= 7.57D-06 BMatP= 6.12D-03
 IDIUse=3 WtCom= 9.95D-01 WtEn= 5.37D-03
 Coeff-Com: -0.287D-02 0.354D-02 0.226D-01-0.473D-02 0.146D-01 0.967D+00
 Coeff-En:   0.000D+00 0.000D+00 0.000D+00 0.000D+00 0.000D+00 0.100D+01
 Coeff:     -0.286D-02 0.352D-02 0.225D-01-0.470D-02 0.145D-01 0.967D+00
 Gap=     0.075 Goal=   None    Shift=    0.000
 RMSDP=1.35D-05 MaxDP=2.70D-04 DE=-1.01D-02 OVMax= 3.45D-04

 Cycle   7  Pass 1  IDiag  1:
 E= -79.6398295569699     Delta-E=       -0.000002294002 Rises=F Damp=F
 DIIS: error= 5.28D-04 at cycle   7 NSaved=   7.
 NSaved= 7 IEnMin= 7 EnMin= -79.6398295569699     IErMin= 7 ErrMin= 5.28D-04
 ErrMax= 5.28D-04 EMaxC= 1.00D-01 BMatC= 4.59D-06 BMatP= 7.57D-06
 IDIUse=3 WtCom= 9.95D-01 WtEn= 5.28D-03
 Coeff-Com:  0.191D-03 0.329D-03 0.564D-02-0.424D-03-0.200D-01 0.267D+00
 Coeff-Com:  0.748D+00
 Coeff-En:   0.000D+00 0.000D+00 0.000D+00 0.000D+00 0.000D+00 0.000D+00
 Coeff-En:   0.100D+01
 Coeff:      0.190D-03 0.327D-03 0.561D-02-0.422D-03-0.199D-01 0.265D+00
 Coeff:      0.749D+00
 Gap=     0.075 Goal=   None    Shift=    0.000
 RMSDP=2.87D-05 MaxDP=6.73D-04 DE=-2.29D-06 OVMax= 2.26D-03

 Cycle   8  Pass 1  IDiag  1:
 E= -79.6398374353663     Delta-E=       -0.000007878396 Rises=F Damp=F
 DIIS: error= 4.23D-05 at cycle   8 NSaved=   8.
 NSaved= 8 IEnMin= 8 EnMin= -79.6398374353663     IErMin= 8 ErrMin= 4.23D-05
 ErrMax= 4.23D-05 EMaxC= 1.00D-01 BMatC= 3.23D-08 BMatP= 4.59D-06
 IDIUse=1 WtCom= 1.00D+00 WtEn= 0.00D+00
 Coeff-Com:  0.552D-03-0.740D-03 0.105D-02 0.262D-03-0.579D-02 0.385D-01
 Coeff-Com:  0.123D+00 0.843D+00
 Coeff:      0.552D-03-0.740D-03 0.105D-02 0.262D-03-0.579D-02 0.385D-01
 Coeff:      0.123D+00 0.843D+00
 Gap=     0.075 Goal=   None    Shift=    0.000
 RMSDP=2.75D-06 MaxDP=6.08D-05 DE=-7.88D-06 OVMax= 2.05D-04

 Cycle   9  Pass 1  IDiag  1:
 E= -79.6398374891614     Delta-E=       -0.000000053795 Rises=F Damp=F
 DIIS: error= 1.59D-06 at cycle   9 NSaved=   9.
 NSaved= 9 IEnMin= 9 EnMin= -79.6398374891614     IErMin= 9 ErrMin= 1.59D-06
 ErrMax= 1.59D-06 EMaxC= 1.00D-01 BMatC= 5.13D-11 BMatP= 3.23D-08
 IDIUse=1 WtCom= 1.00D+00 WtEn= 0.00D+00
 Coeff-Com: -0.443D-05 0.821D-05-0.860D-04-0.546D-05 0.202D-03-0.178D-02
 Coeff-Com: -0.506D-02-0.950D-02 0.102D+01
 Coeff:     -0.443D-05 0.821D-05-0.860D-04-0.546D-05 0.202D-03-0.178D-02
 Coeff:     -0.506D-02-0.950D-02 0.102D+01
 Gap=     0.075 Goal=   None    Shift=    0.000
 RMSDP=7.46D-08 MaxDP=1.58D-06 DE=-5.38D-08 OVMax= 4.95D-06

 Cycle  10  Pass 1  IDiag  1:
 E= -79.6398374892341     Delta-E=       -0.000000000073 Rises=F Damp=F
 DIIS: error= 5.03D-07 at cycle  10 NSaved=  10.
 NSaved=10 IEnMin=10 EnMin= -79.6398374892341     IErMin=10 ErrMin= 5.03D-07
 ErrMax= 5.03D-07 EMaxC= 1.00D-01 BMatC= 4.22D-12 BMatP= 5.13D-11
 IDIUse=1 WtCom= 1.00D+00 WtEn= 0.00D+00
 Coeff-Com: -0.125D-05 0.190D-05-0.140D-04-0.125D-05 0.347D-04-0.215D-03
 Coeff-Com: -0.138D-03-0.306D-02 0.110D+00 0.893D+00
 Coeff:     -0.125D-05 0.190D-05-0.140D-04-0.125D-05 0.347D-04-0.215D-03
 Coeff:     -0.138D-03-0.306D-02 0.110D+00 0.893D+00
 Gap=     0.075 Goal=   None    Shift=    0.000
 RMSDP=2.66D-08 MaxDP=6.32D-07 DE=-7.27D-11 OVMax= 2.11D-06

 Cycle  11  Pass 1  IDiag  1:
 E= -79.6398374892412     Delta-E=       -0.000000000007 Rises=F Damp=F
 DIIS: error= 4.10D-08 at cycle  11 NSaved=  11.
 NSaved=11 IEnMin=11 EnMin= -79.6398374892412     IErMin=11 ErrMin= 4.10D-08
 ErrMax= 4.10D-08 EMaxC= 1.00D-01 BMatC= 3.28D-14 BMatP= 4.22D-12
 IDIUse=1 WtCom= 1.00D+00 WtEn= 0.00D+00
 Coeff-Com: -0.591D-07 0.303D-07-0.820D-06-0.393D-07 0.110D-05 0.244D-05
 Coeff-Com:  0.162D-03-0.459D-03-0.118D-01 0.184D+00 0.828D+00
 Coeff:     -0.591D-07 0.303D-07-0.820D-06-0.393D-07 0.110D-05 0.244D-05
 Coeff:      0.162D-03-0.459D-03-0.118D-01 0.184D+00 0.828D+00
 Gap=     0.075 Goal=   None    Shift=    0.000
 RMSDP=2.46D-09 MaxDP=5.15D-08 DE=-7.11D-12 OVMax= 1.78D-07

 SCF Done:  E(RB3LYP) =  -79.6398374892     A.U. after   11 cycles
             Convg  =    0.2461D-08             -V/T =  2.0131
 KE= 7.861360202374D+01 PE=-2.440583052799D+02 EE= 5.529794319885D+01
 Leave Link  502 at Thu May 27 13:51:00 2021, MaxMem=   13107200 cpu:       8.8
 (Enter /programs/64bit/g09/g09-gfortran/bin/l601.exe)
 Copying SCF densities to generalized density rwf, IOpCl= 0 IROHF=0.

 **********************************************************************

            Population analysis using the SCF density.

 **********************************************************************

 Alpha  occ. eigenvalues --  -10.22530 -10.22436  -0.68541  -0.68250  -0.41063
 Alpha  occ. eigenvalues --   -0.41043  -0.40867  -0.40782  -0.21875
 Alpha virt. eigenvalues --   -0.14387   0.01397   0.03183   0.05568   0.05574
 Alpha virt. eigenvalues --    0.07997   0.08005   0.10909   0.12461   0.17850
 Alpha virt. eigenvalues --    0.17915   0.19880   0.19891   0.24964   0.31294
 Alpha virt. eigenvalues --    0.62569   0.62579   0.64241   0.64896   0.64900
 Alpha virt. eigenvalues --    0.73478   0.88493   0.90361   0.90482   0.92280
 Alpha virt. eigenvalues --    0.92306   0.93943   1.02025   1.08358   1.40297
 Alpha virt. eigenvalues --    1.40370   1.40402   1.40483   1.76199   1.77855
 Alpha virt. eigenvalues --    2.02606   2.02794   2.05592   2.05701   2.06897
 Alpha virt. eigenvalues --    2.07082   2.30742   2.31008   2.31576   2.31621
 Alpha virt. eigenvalues --    2.58162   2.61434   2.80458   2.80625   2.81086
 Alpha virt. eigenvalues --    2.81230   3.18674   3.20968   3.39404   3.39485
 Alpha virt. eigenvalues --    3.40784   3.40891   4.24556   4.30656
          Condensed to atoms (all electrons):
              1          2          3          4          5          6
     1  C    5.221059   0.128577   0.379943   0.379407   0.379961  -0.003770
     2  C    0.128577   5.217241  -0.003839  -0.003631  -0.003836   0.380044
     3  H    0.379943  -0.003839   0.532364  -0.033759  -0.033296   0.000007
     4  H    0.379407  -0.003631  -0.033759   0.533680  -0.033771   0.000011
     5  H    0.379961  -0.003836  -0.033296  -0.033771   0.532311   0.000012
     6  H   -0.003770   0.380044   0.000007   0.000011   0.000012   0.531265
     7  H   -0.003768   0.380051   0.000012   0.000011   0.000007  -0.033287
     8  H   -0.003764   0.380010   0.000012   0.000007   0.000012  -0.033317
              7          8
     1  C   -0.003768  -0.003764
     2  C    0.380051   0.380010
     3  H    0.000012   0.000012
     4  H    0.000011   0.000007
     5  H    0.000007   0.000012
     6  H   -0.033287  -0.033317
     7  H    0.531249  -0.033319
     8  H   -0.033319   0.531382
 Mulliken atomic charges:
              1
     1  C   -0.477644
     2  C   -0.474618
     3  H    0.158556
     4  H    0.158046
     5  H    0.158600
     6  H    0.159036
     7  H    0.159046
     8  H    0.158979
 Sum of Mulliken atomic charges =  -0.00000
 Mulliken charges with hydrogens summed into heavy atoms:
              1
     1  C   -0.002442
     2  C    0.002442
 Sum of Mulliken charges with hydrogens summed into heavy atoms =  -0.00000
 Electronic spatial extent (au):  <R**2>=            479.0270
 Charge=             -0.0000 electrons
 Dipole moment (field-independent basis, Debye):
    X=              0.0046    Y=              0.0083    Z=              0.0269  Tot=              0.0285
 Quadrupole moment (field-independent basis, Debye-Ang):
   XX=            -15.5782   YY=            -15.5908   ZZ=            -10.8289
   XY=             -0.0106   XZ=              0.0111   YZ=              0.0190
 Traceless Quadrupole moment (field-independent basis, Debye-Ang):
   XX=             -1.5789   YY=             -1.5915   ZZ=              3.1704
   XY=             -0.0106   XZ=              0.0111   YZ=              0.0190
 Octapole moment (field-independent basis, Debye-Ang**2):
  XXX=             -0.0023  YYY=              0.0183  ZZZ=            -57.1808  XYY=              0.0148
  XXY=              0.0061  XXZ=            -27.2766  XZZ=             -0.0031  YZZ=             -0.0055
  YYZ=            -27.2809  XYZ=             -0.0037
 Hexadecapole moment (field-independent basis, Debye-Ang**3):
 XXXX=            -33.2184 YYYY=            -33.2264 ZZZZ=           -546.8752 XXXY=             -0.0018
 XXXZ=             -2.9317 YYYX=             -0.0097 YYYZ=              0.0079 ZZZX=              0.0129
 ZZZY=              0.0143 XXYY=            -11.0776 XXZZ=           -106.0645 YYZZ=           -106.0575
 XXYZ=              0.0026 YYXZ=              2.9409 ZZXY=              0.0064
 N-N= 3.050692256806D+01 E-N=-2.440583054540D+02  KE= 7.861360202374D+01
 No NMR shielding tensors so no spin-rotation constants.
 Leave Link  601 at Thu May 27 13:51:00 2021, MaxMem=   13107200 cpu:       0.1
 (Enter /programs/64bit/g09/g09-gfortran/bin/l701.exe)
 Compute integral first derivatives.
 ... and contract with generalized density number  0.
 Leave Link  701 at Thu May 27 13:51:00 2021, MaxMem=   13107200 cpu:       0.1
 (Enter /programs/64bit/g09/g09-gfortran/bin/l702.exe)
 L702 exits ... SP integral derivatives will be done elsewhere.
 Leave Link  702 at Thu May 27 13:51:00 2021, MaxMem=   13107200 cpu:       0.0
 (Enter /programs/64bit/g09/g09-gfortran/bin/l703.exe)
 Compute integral first derivatives, UseDBF=F ICtDFT=           0.
 Integral derivatives from FoFDir, PRISM(SPDF).
 Calling FoFJK, ICntrl=      2127 FMM=F ISym2X=0 I1Cent= 0 IOpClX= 0 NMat=1 NMatS=1 NMatT=0.
 FoFCou: FMM=F IPFlag=           0 FMFlag=      100000 FMFlg1=         800
         NFxFlg=           0 DoJE=F BraDBF=F KetDBF=F FulRan=T
         Omega=  0.000000  0.000000  1.000000  0.000000  0.000000 ICntrl=    2127 IOpCl=  0
         NMat0=    1 NMatS0=    1 NMatT0=    0 NMatD0=    1 NMtDS0=    0 NMtDT0=    0
         I1Cent=           0 NGrid=           0.
 Symmetry not used in FoFCou.
 Leave Link  703 at Thu May 27 13:51:02 2021, MaxMem=   13107200 cpu:       1.7
 (Enter /programs/64bit/g09/g09-gfortran/bin/l716.exe)
 Dipole        = 1.82223003D-03 3.25746406D-03 1.05767987D-02
 -------------------------------------------------------------------
 Center     Atomic                   Forces (Hartrees/Bohr)
 Number     Number              X              Y              Z
 -------------------------------------------------------------------
      1        6           0.000164034   -0.000133812   -0.022616757
      2        6          -0.000110243   -0.000085793    0.021563019
      3        1           0.005216325    0.000317394    0.015707919
      4        1          -0.002895610   -0.005021618    0.015899951
      5        1          -0.002455911    0.004895485    0.015639059
      6        1          -0.005192094   -0.000004856   -0.015398607
      7        1           0.002624586   -0.004552405   -0.015386133
      8        1           0.002648912    0.004585605   -0.015408451
 -------------------------------------------------------------------
 Cartesian Forces:  Max     0.022616757 RMS     0.010419269
 -----------------------------------------------------------------------------------------------
                       Internal Coordinate Forces (Hartree/Bohr or radian)
  Cent   Atom   N1       Length/X         N2         Alpha/Y        N3         Beta/Z          J
 -----------------------------------------------------------------------------------------------
      1  C 
      2  C        1  -0.024630(     1)
      3  H        1  -0.000182(     2)      2  -0.034116(     8)
      4  H        1   0.000009(     3)      2  -0.034886(     9)      3  -0.000006(    14)     0
      5  H        1   0.000078(     4)      2  -0.034138(    10)      3   0.000625(    15)     0
      6  H        2  -0.000104(     5)      1  -0.033486(    11)      3   0.000001(    16)     0
      7  H        2  -0.000041(     6)      1  -0.033501(    12)      6  -0.000006(    17)     0
      8  H        2  -0.000009(     7)      1  -0.033571(    13)      6  -0.000002(    18)     0
 -----------------------------------------------------------------------------------------------
 Internal  Forces:  Max     0.034885528 RMS     0.020445124
 Force constants in Cartesian coordinates: 
                1             2             3             4             5 
      1  0.599546D+00
      2 -0.132321D-02  0.598364D+00
      3  0.203234D-02  0.329411D-02  0.327384D+00
      4 -0.235608D-01 -0.722274D-04 -0.298579D-04  0.602490D+00
      5 -0.722264D-04 -0.236458D-01 -0.586178D-04  0.104784D-04  0.602586D+00
      6  0.114086D-05  0.000000D+00 -0.101695D-01  0.368837D-04  0.918758D-05
      7 -0.310016D+00 -0.827936D-04  0.835220D-01  0.382032D-02  0.000000D+00
      8 -0.261512D-03 -0.786575D-01 -0.172172D-03 -0.285655D-05  0.328629D-03
      9  0.107934D+00 -0.240456D-03 -0.104609D+00  0.110953D-01 -0.155270D-05
     10 -0.135698D+00 -0.986913D-01 -0.435471D-01  0.126197D-02  0.158895D-02
     11 -0.986809D-01 -0.249640D+00 -0.754146D-01  0.158891D-02  0.309667D-02
     12 -0.557260D-01 -0.965165D-01 -0.107910D+00 -0.551445D-02 -0.955131D-02
     13 -0.136488D+00  0.100170D+00 -0.419773D-01  0.120339D-02 -0.151456D-02
     14  0.100338D+00 -0.252638D+00  0.723512D-01 -0.151220D-02  0.294693D-02
     15 -0.542407D-01  0.934628D-01 -0.104695D+00 -0.555097D-02  0.961148D-02
     16  0.382130D-02  0.000000D+00  0.000000D+00 -0.310488D+00  0.000000D+00
     17 -0.609167D-05  0.326958D-03  0.000000D+00  0.383990D-05 -0.796034D-01
     18  0.110981D-01  0.000000D+00  0.000000D+00  0.107764D+00  0.000000D+00
     19  0.120312D-02 -0.151807D-02  0.000000D+00 -0.137361D+00  0.100019D+00
     20 -0.151180D-02  0.294516D-02  0.000000D+00  0.100013D+00 -0.252842D+00
     21 -0.554956D-02  0.961211D-02  0.000000D+00 -0.538982D-01  0.933531D-01
     22  0.119260D-02  0.151812D-02  0.000000D+00 -0.137366D+00 -0.100031D+00
     23  0.151793D-02  0.294525D-02  0.000000D+00 -0.100029D+00 -0.252868D+00
     24 -0.554972D-02 -0.961239D-02  0.000000D+00 -0.539032D-01 -0.933622D-01
                6             7             8             9            10 
      6  0.322487D+00
      7  0.000000D+00  0.316394D+00
      8  0.000000D+00  0.965836D-04  0.589417D-01
      9  0.000000D+00 -0.894128D-01  0.280506D-03  0.874999D-01
     10  0.000000D+00 -0.517652D-02 -0.274066D-01 -0.150341D-01  0.122661D+00
     11  0.000000D+00  0.173223D-02  0.949601D-02  0.503090D-02  0.110000D+00
     12  0.000000D+00  0.298965D-02  0.150555D-01  0.868279D-02  0.467030D-01
     13  0.000000D+00 -0.502112D-02  0.275744D-01 -0.145828D-01  0.169513D-01
     14  0.000000D+00 -0.174549D-02  0.989120D-02 -0.506940D-02  0.145094D-01
     15  0.000000D+00  0.290116D-02 -0.151638D-01  0.842579D-02  0.118782D-01
     16  0.838432D-01  0.000000D+00  0.000000D+00  0.000000D+00  0.000000D+00
     17  0.000000D+00  0.000000D+00  0.605653D-03  0.000000D+00  0.527763D-03
     18 -0.104089D+00  0.000000D+00  0.000000D+00  0.000000D+00  0.000000D+00
     19 -0.419383D-01  0.000000D+00 -0.524557D-03  0.000000D+00 -0.457096D-03
     20  0.726357D-01  0.000000D+00 -0.302853D-03  0.000000D+00 -0.263904D-03
     21 -0.104110D+00  0.000000D+00  0.000000D+00  0.000000D+00  0.000000D+00
     22 -0.419430D-01  0.000000D+00  0.524572D-03  0.000000D+00  0.457109D-03
     23 -0.726447D-01  0.000000D+00 -0.302862D-03  0.000000D+00 -0.263912D-03
     24 -0.104117D+00  0.000000D+00  0.000000D+00  0.000000D+00  0.000000D+00
               11            12            13            14            15 
     11  0.249678D+00
     12  0.808919D-01  0.905417D-01
     13 -0.146399D-01  0.115477D-01  0.123354D+00
     14 -0.126303D-01  0.101204D-01 -0.111589D+00  0.252430D+00
     15 -0.105082D-01  0.868587D-02  0.450123D-01 -0.774023D-01  0.875838D-01
     16  0.000000D+00  0.000000D+00  0.000000D+00  0.000000D+00  0.000000D+00
     17 -0.304704D-03  0.000000D+00 -0.524699D-03 -0.302935D-03  0.000000D+00
     18  0.000000D+00  0.000000D+00  0.000000D+00  0.000000D+00  0.000000D+00
     19  0.263905D-03  0.000000D+00  0.454442D-03  0.262372D-03  0.000000D+00
     20  0.152365D-03  0.000000D+00  0.262372D-03  0.151481D-03  0.000000D+00
     21  0.000000D+00  0.000000D+00  0.000000D+00  0.000000D+00  0.000000D+00
     22 -0.263912D-03  0.000000D+00 -0.454455D-03 -0.262380D-03  0.000000D+00
     23  0.152370D-03  0.000000D+00  0.262380D-03  0.151485D-03  0.000000D+00
     24  0.000000D+00  0.000000D+00  0.000000D+00  0.000000D+00  0.000000D+00
               16            17            18            19            20 
     16  0.316716D+00
     17  0.000000D+00  0.594862D-01
     18 -0.896765D-01  0.000000D+00  0.871482D-01
     19 -0.502460D-02  0.275845D-01 -0.145929D-01  0.123826D+00
     20 -0.174138D-02  0.989594D-02 -0.505744D-02 -0.111423D+00  0.252486D+00
     21  0.291657D-02 -0.151665D-01  0.847053D-02  0.448535D-01 -0.776885D-01
     22 -0.502475D-02 -0.275853D-01 -0.145933D-01  0.173582D-01  0.146646D-01
     23  0.174143D-02  0.989623D-02  0.505759D-02 -0.146646D-01 -0.124863D-01
     24  0.291665D-02  0.151670D-01  0.847078D-02  0.116777D-01  0.101102D-01
               21            22            23            24 
     21  0.871683D-01
     22  0.116777D-01  0.123837D+00
     23 -0.101102D-01  0.111435D+00  0.252512D+00
     24  0.847149D-02  0.448586D-01  0.776973D-01  0.871751D-01
 Force constants in internal coordinates: 
                1             2             3             4             5 
      1  0.101695D-01
      2  0.000000D+00  0.347180D+00
      3  0.000000D+00  0.000000D+00  0.347182D+00
      4  0.000000D+00  0.000000D+00  0.000000D+00  0.347630D+00
      5  0.000000D+00  0.000000D+00  0.000000D+00  0.000000D+00  0.347594D+00
      6  0.000000D+00  0.000000D+00  0.000000D+00  0.000000D+00  0.000000D+00
      7  0.000000D+00  0.000000D+00  0.000000D+00  0.000000D+00  0.000000D+00
      8  0.000000D+00  0.000000D+00  0.000000D+00  0.000000D+00  0.000000D+00
      9  0.000000D+00  0.000000D+00  0.000000D+00  0.000000D+00  0.000000D+00
     10  0.000000D+00  0.000000D+00  0.000000D+00  0.000000D+00  0.000000D+00
     11  0.000000D+00  0.000000D+00  0.000000D+00  0.000000D+00  0.000000D+00
     12  0.000000D+00  0.000000D+00  0.000000D+00  0.000000D+00  0.000000D+00
     13  0.000000D+00  0.000000D+00  0.000000D+00  0.000000D+00  0.000000D+00
     14  0.000000D+00  0.000000D+00  0.000000D+00  0.000000D+00  0.000000D+00
     15  0.000000D+00  0.000000D+00  0.000000D+00  0.000000D+00  0.000000D+00
     16  0.000000D+00  0.000000D+00  0.000000D+00  0.000000D+00  0.000000D+00
     17  0.000000D+00  0.000000D+00  0.000000D+00  0.000000D+00  0.000000D+00
     18  0.000000D+00  0.000000D+00  0.000000D+00  0.000000D+00  0.000000D+00
                6             7             8             9            10 
      6  0.347703D+00
      7  0.000000D+00  0.347740D+00
      8  0.000000D+00  0.000000D+00  0.240985D+00
      9  0.000000D+00  0.000000D+00  0.415244D-01  0.240273D+00
     10  0.000000D+00  0.000000D+00  0.400329D-01  0.415243D-01  0.240985D+00
     11  0.000000D+00  0.000000D+00  0.000000D+00  0.000000D+00  0.000000D+00
     12  0.000000D+00  0.000000D+00  0.000000D+00  0.000000D+00  0.000000D+00
     13  0.000000D+00  0.000000D+00  0.000000D+00  0.000000D+00  0.000000D+00
     14  0.000000D+00  0.000000D+00 -0.656057D-01  0.000000D+00  0.656058D-01
     15  0.000000D+00  0.000000D+00  0.644103D-01 -0.643697D-01 -0.119197D-02
     16  0.000000D+00  0.000000D+00  0.000000D+00  0.000000D+00  0.000000D+00
     17  0.000000D+00  0.000000D+00  0.000000D+00  0.000000D+00  0.000000D+00
     18  0.000000D+00  0.000000D+00  0.000000D+00  0.000000D+00  0.000000D+00
               11            12            13            14            15 
     11  0.238947D+00
     12  0.402299D-01  0.238947D+00
     13  0.402299D-01  0.402297D-01  0.238947D+00
     14  0.000000D+00  0.000000D+00  0.000000D+00  0.221949D+00
     15  0.000000D+00  0.000000D+00  0.000000D+00 -0.107534D+00  0.223908D+00
     16  0.000000D+00  0.000000D+00  0.000000D+00  0.690000D-02  0.690000D-02
     17 -0.643971D-01  0.000000D+00  0.643971D-01  0.230000D-02  0.230000D-02
     18  0.643971D-01 -0.643971D-01  0.000000D+00  0.230000D-02  0.230000D-02
               16            17            18 
     16  0.207000D-01
     17  0.690000D-02  0.225828D+00
     18  0.689999D-02 -0.109464D+00  0.225828D+00
 Leave Link  716 at Thu May 27 13:51:02 2021, MaxMem=   13107200 cpu:       0.0
 (Enter /programs/64bit/g09/g09-gfortran/bin/l103.exe)

 GradGradGradGradGradGradGradGradGradGradGradGradGradGradGradGradGradGrad
 Berny optimization.
 Search for a local minimum.
 Step number   1 out of a maximum of    2
 All quantities printed in internal units (Hartrees-Bohrs-Radians)
 Second derivative matrix not updated -- first step.
 The second derivative matrix:
                          d1        a1        t1        d2        a2
           d1           0.01017
           a1           0.00000   0.24099
           t1          -0.00000  -0.06561   0.22195
           d2           0.00000  -0.00000  -0.00000   0.34718
           a2           0.00000   0.04152   0.00000   0.00000   0.24027
           t2           0.00000   0.06441  -0.10753   0.00000  -0.06437
           d3          -0.00000   0.00000  -0.00000  -0.00000   0.00000
           d4           0.00000   0.00000  -0.00000   0.00000   0.00000
           a3          -0.00000   0.04003   0.06561   0.00000   0.04152
           d5           0.00000   0.00000   0.00000   0.00000   0.00000
           a4           0.00000   0.00000   0.00000   0.00000  -0.00000
           t3          -0.00000   0.00000   0.00690   0.00000  -0.00000
           d6           0.00000   0.00000  -0.00000   0.00000   0.00000
           a5           0.00000   0.00000  -0.00000   0.00000  -0.00000
           t4           0.00000   0.00000   0.00230   0.00000  -0.00000
           d7          -0.00000   0.00000  -0.00000   0.00000   0.00000
           a6           0.00000   0.00000   0.00000   0.00000   0.00000
           t5          -0.00000   0.00000   0.00230   0.00000  -0.00000
                          t2        d3        d4        a3        d5
           t2           0.22391
           d3          -0.00000   0.34718
           d4           0.00000   0.00000   0.34763
           a3          -0.00119   0.00000  -0.00000   0.24099
           d5           0.00000  -0.00000  -0.00000   0.00000   0.34759
           a4           0.00000   0.00000   0.00000  -0.00000  -0.00000
           t3           0.00690  -0.00000   0.00000  -0.00000  -0.00000
           d6           0.00000  -0.00000  -0.00000   0.00000   0.00000
           a5          -0.00000   0.00000   0.00000  -0.00000  -0.00000
           t4           0.00230  -0.00000   0.00000  -0.00000  -0.00000
           d7          -0.00000  -0.00000  -0.00000   0.00000   0.00000
           a6           0.00000   0.00000   0.00000  -0.00000   0.00000
           t5           0.00230   0.00000   0.00000   0.00000   0.00000
                          a4        t3        d6        a5        t4
           a4           0.23895
           t3           0.00000   0.02070
           d6           0.00000   0.00000   0.34770
           a5           0.04023  -0.00000   0.00000   0.23895
           t4          -0.06440   0.00690  -0.00000  -0.00000   0.22583
           d7          -0.00000  -0.00000   0.00000   0.00000   0.00000
           a6           0.04023   0.00000   0.00000   0.04023   0.06440
           t5           0.06440   0.00690   0.00000  -0.06440  -0.10946
                          d7        a6        t5
           d7           0.34774
           a6           0.00000   0.23895
           t5          -0.00000   0.00000   0.22583
     Eigenvalues --- 1000.000001000.000001000.000001000.000001000.00000
     Eigenvalues --- 1000.000001000.000001000.000001000.000001000.00000
     Eigenvalues --- 1000.000001000.000001000.000001000.000001000.00000
     Eigenvalues --- 1000.000001000.000001000.00000
 Angle between quadratic step and forces=  90.00 degrees.
 Linear search not attempted -- first point.
 Variable       Old X    -DE/DX   Delta X   Delta X   Delta X     New X
                                 (Linear)    (Quad)   (Total)
    d1        6.63019  -0.02463   0.00000   0.00000   0.00000   6.63019
    a1        1.90240  -0.03412   0.00000   0.00000   0.00000   1.90240
    t1        2.09440  -0.00001   0.00000   0.00000   0.00000   2.09440
    d2        2.06135  -0.00018   0.00000   0.00000   0.00000   2.06135
    a2        1.91985  -0.03489   0.00000   0.00000   0.00000   1.91985
    t2       -2.09439   0.00063   0.00000   0.00000   0.00000  -2.09439
    d3        2.06135   0.00001   0.00000   0.00000   0.00000   2.06135
    d4        2.06061   0.00008   0.00000   0.00000   0.00000   2.06061
    a3        1.90240  -0.03414   0.00000   0.00000   0.00000   1.90240
    d5        2.06067  -0.00010   0.00000   0.00000   0.00000   2.06067
    a4        1.90240  -0.03349   0.00000   0.00000   0.00000   1.90240
    t3        3.14159   0.00000   0.00000   0.00000   0.00000   3.14159
    d6        2.06049  -0.00004   0.00000   0.00000   0.00000   2.06049
    a5        1.90240  -0.03350   0.00000   0.00000   0.00000   1.90240
    t4        2.09440  -0.00001   0.00000   0.00000   0.00000   2.09440
    d7        2.06043  -0.00001   0.00000   0.00000   0.00000   2.06043
    a6        1.90240  -0.03357   0.00000   0.00000   0.00000   1.90240
    t5       -2.09440  -0.00000   0.00000   0.00000   0.00000  -2.09440
         Item               Value     Threshold  Converged?
 Maximum Force            0.000000     0.000450     YES
 RMS     Force            0.000000     0.000300     YES
 Maximum Displacement     0.000000     0.001800     YES
 RMS     Displacement     0.000000     0.001200     YES
 Predicted change in Energy=-0.000000D+00
 Optimization completed.
    -- Stationary point found.
                       ----------------------------
                       !   Optimized Parameters   !
                       ! (Angstroms and Degrees)  !
 ----------------------                            ----------------------
 !      Name          Value   Derivative information (Atomic Units)     !
 ------------------------------------------------------------------------
 !       d1          3.5085   -DE/DX =   -0.0246                        !
 !       a1        108.9995   -DE/DX =   -0.0341                        !
 !       t1        120.0      -DE/DX =    0.0                           !
 !       d2          1.0908   -DE/DX =   -0.0002                        !
 !       a2        109.9993   -DE/DX =   -0.0349                        !
 !       t2       -120.0      -DE/DX =    0.0006                        !
 !       d3          1.0908   -DE/DX =    0.0                           !
 !       d4          1.0904   -DE/DX =    0.0001                        !
 !       a3        108.9995   -DE/DX =   -0.0341                        !
 !       d5          1.0905   -DE/DX =   -0.0001                        !
 !       a4        108.9996   -DE/DX =   -0.0335                        !
 !       t3        180.0      -DE/DX =    0.0                           !
 !       d6          1.0904   -DE/DX =    0.0                           !
 !       a5        108.9995   -DE/DX =   -0.0335                        !
 !       t4        120.0      -DE/DX =    0.0                           !
 !       d7          1.0903   -DE/DX =    0.0                           !
 !       a6        108.9995   -DE/DX =   -0.0336                        !
 !       t5       -120.0      -DE/DX =    0.0                           !
 ------------------------------------------------------------------------
 GradGradGradGradGradGradGradGradGradGradGradGradGradGradGradGradGradGrad

 Leave Link  103 at Thu May 27 13:51:02 2021, MaxMem=   13107200 cpu:       0.0
 (Enter /programs/64bit/g09/g09-gfortran/bin/l9999.exe)
 1\1\GINC-MOLMOD\Force\RB3LYP\6-31+G(d,p)\C2H6\OSPITE\27-May-2021\1\\#p
  b3lyp/6-31+g(d,p) force nosym\\c2h6 molecule\\0,1\C\C,1,d1\H,1,d2,2,a
 1\H,1,d3,2,a2,3,t1,0\H,1,d4,2,a3,3,t2,0\H,2,d5,1,a4,3,t3,0\H,2,d6,1,a5
 ,6,t4,0\H,2,d7,1,a6,6,t5,0\\d1=3.50854422\a1=108.99954836\t1=120.00002
 043\d2=1.09082032\a2=109.99933893\t2=-119.99996668\d3=1.09081896\d4=1.
 09042972\a3=108.99947244\d5=1.09046141\a4=108.99958221\t3=179.99999825
 \d6=1.09036626\a5=108.99950751\t4=120.00001694\d7=1.09033454\a6=108.99
 950298\t5=-120.00001274\\Version=EM64L-G09RevA.02\HF=-79.6398375\RMSD=
 2.461e-09\RMSF=1.042e-02\Dipole=0.0018222,0.0032575,0.0105768\Quadrupo
 le=-1.1738568,-1.1832472,2.357104,-0.0078984,0.0082441,0.0141508\PG=C0
 1 [X(C2H6)]\\@


 DEFINE YOUR TERMS, YOU WILL PERMIT ME AGAIN TO SAY, 
 OR WE SHALL NEVER UNDERSTAND ONE ANOTHER.

                                    -- VOLTAIRE
 Job cpu time:  0 days  0 hours  0 minutes 11.9 seconds.
 File lengths (MBytes):  RWF=      5 Int=      0 D2E=      0 Chk=      1 Scr=      1
 Normal termination of Gaussian 09 at Thu May 27 13:51:02 2021.
