 Entering Gaussian System, Link 0=g09
 Input=c2h6_020.com
 Output=c2h6_020.log
 Initial command:
 /programs/64bit/g09/g09-gfortran/bin/l1.exe /data/scratch/Gau-17377.inp -scrdir=/data/scratch/
 Entering Link 1 = /programs/64bit/g09/g09-gfortran/bin/l1.exe PID=     17378.
  
 Copyright (c) 1988,1990,1992,1993,1995,1998,2003,2009, Gaussian, Inc.
                  All Rights Reserved.
  
 This is part of the Gaussian(R) 09 program.  It is based on
 the Gaussian(R) 03 system (copyright 2003, Gaussian, Inc.),
 the Gaussian(R) 98 system (copyright 1998, Gaussian, Inc.),
 the Gaussian(R) 94 system (copyright 1995, Gaussian, Inc.),
 the Gaussian 92(TM) system (copyright 1992, Gaussian, Inc.),
 the Gaussian 90(TM) system (copyright 1990, Gaussian, Inc.),
 the Gaussian 88(TM) system (copyright 1988, Gaussian, Inc.),
 the Gaussian 86(TM) system (copyright 1986, Carnegie Mellon
 University), and the Gaussian 82(TM) system (copyright 1983,
 Carnegie Mellon University). Gaussian is a federally registered
 trademark of Gaussian, Inc.
  
 This software contains proprietary and confidential information,
 including trade secrets, belonging to Gaussian, Inc.
  
 This software is provided under written license and may be
 used, copied, transmitted, or stored only in accord with that
 written license.
  
 The following legend is applicable only to US Government
 contracts under FAR:
  
                    RESTRICTED RIGHTS LEGEND
  
 Use, reproduction and disclosure by the US Government is
 subject to restrictions as set forth in subparagraphs (a)
 and (c) of the Commercial Computer Software - Restricted
 Rights clause in FAR 52.227-19.
  
 Gaussian, Inc.
 340 Quinnipiac St., Bldg. 40, Wallingford CT 06492
  
  
 ---------------------------------------------------------------
 Warning -- This program may not be used in any manner that
 competes with the business of Gaussian, Inc. or will provide
 assistance to any competitor of Gaussian, Inc.  The licensee
 of this program is prohibited from giving any competitor of
 Gaussian, Inc. access to this program.  By using this program,
 the user acknowledges that Gaussian, Inc. is engaged in the
 business of creating and licensing software in the field of
 computational chemistry and represents and warrants to the
 licensee that it is not a competitor of Gaussian, Inc. and that
 it will not use this program in any manner prohibited above.
 ---------------------------------------------------------------
  

 Cite this work as:
 Gaussian 09, Revision A.02,
 M. J. Frisch, G. W. Trucks, H. B. Schlegel, G. E. Scuseria, 
 M. A. Robb, J. R. Cheeseman, G. Scalmani, V. Barone, B. Mennucci, 
 G. A. Petersson, H. Nakatsuji, M. Caricato, X. Li, H. P. Hratchian, 
 A. F. Izmaylov, J. Bloino, G. Zheng, J. L. Sonnenberg, M. Hada, 
 M. Ehara, K. Toyota, R. Fukuda, J. Hasegawa, M. Ishida, T. Nakajima, 
 Y. Honda, O. Kitao, H. Nakai, T. Vreven, J. A. Montgomery, Jr., 
 J. E. Peralta, F. Ogliaro, M. Bearpark, J. J. Heyd, E. Brothers, 
 K. N. Kudin, V. N. Staroverov, R. Kobayashi, J. Normand, 
 K. Raghavachari, A. Rendell, J. C. Burant, S. S. Iyengar, J. Tomasi, 
 M. Cossi, N. Rega, J. M. Millam, M. Klene, J. E. Knox, J. B. Cross, 
 V. Bakken, C. Adamo, J. Jaramillo, R. Gomperts, R. E. Stratmann, 
 O. Yazyev, A. J. Austin, R. Cammi, C. Pomelli, J. W. Ochterski, 
 R. L. Martin, K. Morokuma, V. G. Zakrzewski, G. A. Voth, 
 P. Salvador, J. J. Dannenberg, S. Dapprich, A. D. Daniels, 
 O. Farkas, J. B. Foresman, J. V. Ortiz, J. Cioslowski, 
 and D. J. Fox, Gaussian, Inc., Wallingford CT, 2009.
 
 ******************************************
 Gaussian 09:  EM64L-G09RevA.02 11-Jun-2009
                27-May-2021 
 ******************************************
 %chk=c2h6_020.chk
 %mem=100MB
 --------------------------------
 #p b3lyp/6-31+g(d,p) force nosym
 --------------------------------
 1/10=7,30=1,38=1/1,3;
 2/12=2,15=1,17=6,18=5,40=1/2;
 3/5=1,6=6,7=111,11=2,16=1,25=1,30=1,71=1,74=-5/1,2,3;
 4//1;
 5/5=2,38=5/2;
 6/7=2,8=2,9=2,10=2,28=1/1;
 7/29=1,30=1/1,2,3,16;
 1/10=7,30=1/3;
 99//99;
 Leave Link    1 at Thu May 27 13:53:29 2021, MaxMem=   13107200 cpu:       0.0
 (Enter /programs/64bit/g09/g09-gfortran/bin/l101.exe)
 -------------
 c2h6 molecule
 -------------
 Symbolic Z-matrix:
 Charge =  0 Multiplicity = 1
 C1
 C2                   1    d1
 H3                   1    d2       2    a1
 H4                   1    d3       2    a2       3    t1       0
 H5                   1    d4       2    a3       3    t2       0
 H6                   2    d5       1    a4       3    t3       0
 H7                   2    d6       1    a5       6    t4       0
 H8                   2    d7       1    a6       6    t5       0
       Variables:
       Constants:
  d1                    1.54755                  
  a1                  109.01618                  
  t1                  120.00003                  
  d2                    1.09556                  
  a2                  110.01611                  
  t2                 -120.0002                   
  d3                    1.09472                  
  d4                    1.09446                  
  a3                  109.01609                  
  d5                    1.09522                  
  a4                  109.01592                  
  t3                  180.                       
  d6                    1.0943                   
  a5                  109.01586                  
  t4                  120.00002                  
  d7                    1.094                    
  a6                  109.01583                  
  t5                 -120.00002                  
 
 NAtoms=      8 NQM=      8 NQMF=      0 NMic=      0 NMicF=      0 NTot=      8.
                    Isotopes and Nuclear Properties:
 (Nuclear quadrupole moments (NQMom) in fm**2, nuclear magnetic moments (NMagM)
  in nuclear magnetons)

  Atom         1           2           3           4           5           6           7           8
 IAtWgt=          12          12           1           1           1           1           1           1
 AtmWgt=  12.0000000  12.0000000   1.0078250   1.0078250   1.0078250   1.0078250   1.0078250   1.0078250
 NucSpn=           0           0           1           1           1           1           1           1
 AtZEff=   0.0000000   0.0000000   0.0000000   0.0000000   0.0000000   0.0000000   0.0000000   0.0000000
 NQMom=    0.0000000   0.0000000   0.0000000   0.0000000   0.0000000   0.0000000   0.0000000   0.0000000
 NMagM=    0.0000000   0.0000000   2.7928460   2.7928460   2.7928460   2.7928460   2.7928460   2.7928460
 Leave Link  101 at Thu May 27 13:53:29 2021, MaxMem=   13107200 cpu:       0.0
 (Enter /programs/64bit/g09/g09-gfortran/bin/l103.exe)

 GradGradGradGradGradGradGradGradGradGradGradGradGradGradGradGradGradGrad
 Berny optimization.
 Initialization pass.
                       ----------------------------
                       !    Initial Parameters    !
                       ! (Angstroms and Degrees)  !
 ----------------------                            ----------------------
 !      Name          Value   Derivative information (Atomic Units)     !
 ------------------------------------------------------------------------
 !       d1          1.5475   Frozen                                    !
 !       a1        109.0162   Frozen                                    !
 !       t1        120.0      Frozen                                    !
 !       d2          1.0956   Frozen                                    !
 !       a2        110.0161   Frozen                                    !
 !       t2       -120.0002   Frozen                                    !
 !       d3          1.0947   Frozen                                    !
 !       d4          1.0945   Frozen                                    !
 !       a3        109.0161   Frozen                                    !
 !       d5          1.0952   Frozen                                    !
 !       a4        109.0159   Frozen                                    !
 !       t3        180.0      Frozen                                    !
 !       d6          1.0943   Frozen                                    !
 !       a5        109.0159   Frozen                                    !
 !       t4        120.0      Frozen                                    !
 !       d7          1.094    Frozen                                    !
 !       a6        109.0158   Frozen                                    !
 !       t5       -120.0      Frozen                                    !
 ------------------------------------------------------------------------
 Trust Radius=3.00D-01 FncErr=1.00D-07 GrdErr=1.00D-07
 Number of steps in this run=   2 maximum allowed number of steps=   2.
 GradGradGradGradGradGradGradGradGradGradGradGradGradGradGradGradGradGrad

 Leave Link  103 at Thu May 27 13:53:29 2021, MaxMem=   13107200 cpu:       0.0
 (Enter /programs/64bit/g09/g09-gfortran/bin/l202.exe)
                          Input orientation:                          
 ---------------------------------------------------------------------
 Center     Atomic      Atomic             Coordinates (Angstroms)
 Number     Number       Type             X           Y           Z
 ---------------------------------------------------------------------
      1          6           0        0.000000    0.000000    0.000000
      2          6           0        0.000000    0.000000    1.547546
      3          1           0        1.035767    0.000000   -0.356970
      4          1           0       -0.514297   -0.890787   -0.374705
      5          1           0       -0.517369    0.896102   -0.356612
      6          1           0       -1.035448    0.000000    1.904401
      7          1           0        0.517292   -0.895976    1.904102
      8          1           0        0.517151    0.895731    1.904004
 ---------------------------------------------------------------------
                    Distance matrix (angstroms):
                    1          2          3          4          5
     1  C    0.000000
     2  C    1.547546   0.000000
     3  H    1.095555   2.167948   0.000000
     4  H    1.094718   2.180149   1.787880   0.000000
     5  H    1.094459   2.167138   1.793107   1.786984   0.000000
     6  H    2.167694   1.095216   3.066551   2.501884   2.486681
     7  H    2.167019   1.094302   2.486773   2.501433   3.064783
     8  H    2.166798   1.094003   2.486625   3.073768   2.486085
                    6          7          8
     6  H    0.000000
     7  H    1.792701   0.000000
     8  H    1.792456   1.791707   0.000000
 Symmetry turned off by external request.
 Stoichiometry    C2H6
 Framework group  C1[X(C2H6)]
 Deg. of freedom    18
 Full point group                 C1      NOp   1
 Rotational constants (GHZ):     78.1840554     19.9261785     19.9138278
 Leave Link  202 at Thu May 27 13:53:29 2021, MaxMem=   13107200 cpu:       0.0
 (Enter /programs/64bit/g09/g09-gfortran/bin/l301.exe)
 Standard basis: 6-31+G(d,p) (6D, 7F)
 Ernie: Thresh=  0.10000D-02 Tol=  0.10000D-05 Strict=F.
 Integral buffers will be    131072 words long.
 Raffenetti 2 integral format.
 Two-electron integral symmetry is turned off.
    68 basis functions,   106 primitive gaussians,    68 cartesian basis functions
     9 alpha electrons        9 beta electrons
       nuclear repulsion energy        42.0582057771 Hartrees.
 IExCor=  402 DFT=T Ex+Corr=B3LYP ExCW=0 ScaHFX=  0.200000
 ScaDFX=  0.800000  0.720000  1.000000  0.810000 ScalE2=  1.000000  1.000000
 IRadAn=      0 IRanWt=     -1 IRanGd=            0 ICorTp=0
 NAtoms=    8 NActive=    8 NUniq=    8 SFac= 7.50D-01 NAtFMM=   80 NAOKFM=F Big=F
 Leave Link  301 at Thu May 27 13:53:29 2021, MaxMem=   13107200 cpu:       0.0
 (Enter /programs/64bit/g09/g09-gfortran/bin/l302.exe)
 NPDir=0 NMtPBC=     1 NCelOv=     1 NCel=       1 NClECP=     1 NCelD=      1
         NCelK=      1 NCelE2=     1 NClLst=     1 CellRange=     0.0.
 One-electron integrals computed using PRISM.
 NBasis=    68 RedAO= T  NBF=    68
 NBsUse=    68 1.00D-06 NBFU=    68
 Precomputing XC quadrature grid using
 IXCGrd= 2 IRadAn=           0 IRanWt=          -1 IRanGd=           0 AccXCQ= 1.00D-10.
 NRdTot=     510 NPtTot=       65100 NUsed=       68787 NTot=       68819
 NSgBfM=    68    68    68    68    68 NAtAll=     8     8.
 Leave Link  302 at Thu May 27 13:53:29 2021, MaxMem=   13107200 cpu:       0.1
 (Enter /programs/64bit/g09/g09-gfortran/bin/l303.exe)
 DipDrv:  MaxL=1.
 Leave Link  303 at Thu May 27 13:53:29 2021, MaxMem=   13107200 cpu:       0.0
 (Enter /programs/64bit/g09/g09-gfortran/bin/l401.exe)
 Harris functional with IExCor=  402 diagonalized for initial guess.
 ExpMin= 4.38D-02 ExpMax= 3.05D+03 ExpMxC= 4.57D+02 IAcc=2 IRadAn=         0 AccDes= 0.00D+00
 HarFok:  IExCor=  402 AccDes= 0.00D+00 IRadAn=         0 IDoV= 1
 ScaDFX=  1.000000  1.000000  1.000000  1.000000
 FoFCou: FMM=F IPFlag=           0 FMFlag=      100000 FMFlg1=           0
         NFxFlg=           0 DoJE=T BraDBF=F KetDBF=T FulRan=T
         Omega=  0.000000  0.000000  1.000000  0.000000  0.000000 ICntrl=     500 IOpCl=  0
         NMat0=    1 NMatS0=    1 NMatT0=    0 NMatD0=    1 NMtDS0=    0 NMtDT0=    0
         I1Cent=           4 NGrid=           0.
 Symmetry not used in FoFCou.
 Harris En= -79.8969736251784    
 Leave Link  401 at Thu May 27 13:53:30 2021, MaxMem=   13107200 cpu:       0.6
 (Enter /programs/64bit/g09/g09-gfortran/bin/l502.exe)
 Closed shell SCF:
 Requested convergence on RMS density matrix=1.00D-08 within 128 cycles.
 Requested convergence on MAX density matrix=1.00D-06.
 Requested convergence on             energy=1.00D-06.
 No special actions if energy rises.
 Using DIIS extrapolation, IDIIS=  1040.
 Two-electron integral symmetry not used.
        68702 words used for storage of precomputed grid.
 Keep R1 ints in memory in canonical form, NReq=3743087.
 IEnd=      101552 IEndB=      101552 NGot=    13107200 MDV=    10273922
 LenX=    10273922 LenY=    10268857
 Symmetry not used in FoFDir.
 MinBra= 0 MaxBra= 2 Meth= 1.
 IRaf=       0 NMat=   1 IRICut=       1 DoRegI=T DoRafI=F ISym2E= 0 JSym2E=0.

 Cycle   1  Pass 1  IDiag  1:
 E= -79.7103116711826    
 DIIS: error= 3.96D-02 at cycle   1 NSaved=   1.
 NSaved= 1 IEnMin= 1 EnMin= -79.7103116711826     IErMin= 1 ErrMin= 3.96D-02
 ErrMax= 3.96D-02 EMaxC= 1.00D-01 BMatC= 1.14D-01 BMatP= 1.14D-01
 IDIUse=3 WtCom= 6.04D-01 WtEn= 3.96D-01
 Coeff-Com:  0.100D+01
 Coeff-En:   0.100D+01
 Coeff:      0.100D+01
 Gap=     0.284 Goal=   None    Shift=    0.000
 GapD=    0.284 DampG=1.000 DampE=0.500 DampFc=0.5000 IDamp=-1.
 Damping current iteration by 5.00D-01
 RMSDP=9.56D-03 MaxDP=1.39D-01              OVMax= 2.02D-01

 Cycle   2  Pass 1  IDiag  1:
 E= -79.7644356853351     Delta-E=       -0.054124014153 Rises=F Damp=T
 DIIS: error= 1.15D-02 at cycle   2 NSaved=   2.
 NSaved= 2 IEnMin= 2 EnMin= -79.7644356853351     IErMin= 2 ErrMin= 1.15D-02
 ErrMax= 1.15D-02 EMaxC= 1.00D-01 BMatC= 4.49D-03 BMatP= 1.14D-01
 IDIUse=3 WtCom= 8.85D-01 WtEn= 1.15D-01
 Coeff-Com:  0.108D+00 0.892D+00
 Coeff-En:   0.185D+00 0.815D+00
 Coeff:      0.117D+00 0.883D+00
 Gap=     0.372 Goal=   None    Shift=    0.000
 RMSDP=1.27D-03 MaxDP=9.70D-03 DE=-5.41D-02 OVMax= 1.25D-01

 Cycle   3  Pass 1  IDiag  1:
 E= -79.8403167785723     Delta-E=       -0.075881093237 Rises=F Damp=F
 DIIS: error= 2.27D-03 at cycle   3 NSaved=   3.
 NSaved= 3 IEnMin= 3 EnMin= -79.8403167785723     IErMin= 3 ErrMin= 2.27D-03
 ErrMax= 2.27D-03 EMaxC= 1.00D-01 BMatC= 1.51D-04 BMatP= 4.49D-03
 IDIUse=3 WtCom= 9.77D-01 WtEn= 2.27D-02
 Coeff-Com:  0.717D-02 0.105D+00 0.888D+00
 Coeff-En:   0.000D+00 0.000D+00 0.100D+01
 Coeff:      0.701D-02 0.103D+00 0.890D+00
 Gap=     0.365 Goal=   None    Shift=    0.000
 RMSDP=1.97D-04 MaxDP=2.14D-03 DE=-7.59D-02 OVMax= 4.55D-03

 Cycle   4  Pass 1  IDiag  1:
 E= -79.8404466000025     Delta-E=       -0.000129821430 Rises=F Damp=F
 DIIS: error= 7.01D-04 at cycle   4 NSaved=   4.
 NSaved= 4 IEnMin= 4 EnMin= -79.8404466000025     IErMin= 4 ErrMin= 7.01D-04
 ErrMax= 7.01D-04 EMaxC= 1.00D-01 BMatC= 1.05D-05 BMatP= 1.51D-04
 IDIUse=3 WtCom= 9.93D-01 WtEn= 7.01D-03
 Coeff-Com: -0.492D-03-0.512D-02 0.199D+00 0.807D+00
 Coeff-En:   0.000D+00 0.000D+00 0.000D+00 0.100D+01
 Coeff:     -0.489D-03-0.508D-02 0.197D+00 0.808D+00
 Gap=     0.365 Goal=   None    Shift=    0.000
 RMSDP=4.39D-05 MaxDP=4.50D-04 DE=-1.30D-04 OVMax= 1.22D-03

 Cycle   5  Pass 1  IDiag  1:
 E= -79.8404565466100     Delta-E=       -0.000009946608 Rises=F Damp=F
 DIIS: error= 2.47D-05 at cycle   5 NSaved=   5.
 NSaved= 5 IEnMin= 5 EnMin= -79.8404565466100     IErMin= 5 ErrMin= 2.47D-05
 ErrMax= 2.47D-05 EMaxC= 1.00D-01 BMatC= 2.95D-08 BMatP= 1.05D-05
 IDIUse=1 WtCom= 1.00D+00 WtEn= 0.00D+00
 Coeff-Com:  0.334D-03-0.678D-03 0.616D-03 0.177D-01 0.982D+00
 Coeff:      0.334D-03-0.678D-03 0.616D-03 0.177D-01 0.982D+00
 Gap=     0.365 Goal=   None    Shift=    0.000
 RMSDP=3.04D-06 MaxDP=7.44D-05 DE=-9.95D-06 OVMax= 1.01D-04

 Cycle   6  Pass 1  IDiag  1:
 E= -79.8404565683336     Delta-E=       -0.000000021724 Rises=F Damp=F
 DIIS: error= 2.05D-05 at cycle   6 NSaved=   6.
 NSaved= 6 IEnMin= 6 EnMin= -79.8404565683336     IErMin= 6 ErrMin= 2.05D-05
 ErrMax= 2.05D-05 EMaxC= 1.00D-01 BMatC= 1.18D-08 BMatP= 2.95D-08
 IDIUse=1 WtCom= 1.00D+00 WtEn= 0.00D+00
 Coeff-Com:  0.198D-03-0.228D-03-0.545D-02-0.138D-01 0.528D+00 0.491D+00
 Coeff:      0.198D-03-0.228D-03-0.545D-02-0.138D-01 0.528D+00 0.491D+00
 Gap=     0.365 Goal=   None    Shift=    0.000
 RMSDP=1.25D-06 MaxDP=2.67D-05 DE=-2.17D-08 OVMax= 3.72D-05

 Cycle   7  Pass 1  IDiag  1:
 E= -79.8404565797858     Delta-E=       -0.000000011452 Rises=F Damp=F
 DIIS: error= 9.12D-07 at cycle   7 NSaved=   7.
 NSaved= 7 IEnMin= 7 EnMin= -79.8404565797858     IErMin= 7 ErrMin= 9.12D-07
 ErrMax= 9.12D-07 EMaxC= 1.00D-01 BMatC= 2.96D-11 BMatP= 1.18D-08
 IDIUse=1 WtCom= 1.00D+00 WtEn= 0.00D+00
 Coeff-Com: -0.822D-05 0.530D-05-0.225D-03-0.883D-03-0.831D-02 0.368D-01
 Coeff-Com:  0.973D+00
 Coeff:     -0.822D-05 0.530D-05-0.225D-03-0.883D-03-0.831D-02 0.368D-01
 Coeff:      0.973D+00
 Gap=     0.365 Goal=   None    Shift=    0.000
 RMSDP=9.05D-08 MaxDP=1.44D-06 DE=-1.15D-08 OVMax= 1.88D-06

 Cycle   8  Pass 1  IDiag  1:
 E= -79.8404565798185     Delta-E=       -0.000000000033 Rises=F Damp=F
 DIIS: error= 7.66D-08 at cycle   8 NSaved=   8.
 NSaved= 8 IEnMin= 8 EnMin= -79.8404565798185     IErMin= 8 ErrMin= 7.66D-08
 ErrMax= 7.66D-08 EMaxC= 1.00D-01 BMatC= 3.30D-13 BMatP= 2.96D-11
 IDIUse=1 WtCom= 1.00D+00 WtEn= 0.00D+00
 Coeff-Com: -0.296D-05 0.231D-05-0.391D-04-0.201D-03-0.435D-02 0.800D-02
 Coeff-Com:  0.262D+00 0.735D+00
 Coeff:     -0.296D-05 0.231D-05-0.391D-04-0.201D-03-0.435D-02 0.800D-02
 Coeff:      0.262D+00 0.735D+00
 Gap=     0.365 Goal=   None    Shift=    0.000
 RMSDP=1.27D-08 MaxDP=1.43D-07 DE=-3.27D-11 OVMax= 2.16D-07

 Cycle   9  Pass 1  IDiag  1:
 E= -79.8404565798186     Delta-E=       -0.000000000000 Rises=F Damp=F
 DIIS: error= 1.24D-08 at cycle   9 NSaved=   9.
 NSaved= 9 IEnMin= 9 EnMin= -79.8404565798186     IErMin= 9 ErrMin= 1.24D-08
 ErrMax= 1.24D-08 EMaxC= 1.00D-01 BMatC= 9.41D-15 BMatP= 3.30D-13
 IDIUse=1 WtCom= 1.00D+00 WtEn= 0.00D+00
 Coeff-Com:  0.129D-08 0.123D-06 0.691D-05 0.106D-04-0.303D-03-0.885D-03
 Coeff-Com: -0.136D-01 0.116D+00 0.899D+00
 Coeff:      0.129D-08 0.123D-06 0.691D-05 0.106D-04-0.303D-03-0.885D-03
 Coeff:     -0.136D-01 0.116D+00 0.899D+00
 Gap=     0.365 Goal=   None    Shift=    0.000
 RMSDP=2.06D-09 MaxDP=2.29D-08 DE=-1.42D-13 OVMax= 4.26D-08

 SCF Done:  E(RB3LYP) =  -79.8404565798     A.U. after    9 cycles
             Convg  =    0.2055D-08             -V/T =  2.0111
 KE= 7.896699476897D+01 PE=-2.678559693180D+02 EE= 6.699031219212D+01
 Leave Link  502 at Thu May 27 13:53:35 2021, MaxMem=   13107200 cpu:       4.8
 (Enter /programs/64bit/g09/g09-gfortran/bin/l601.exe)
 Copying SCF densities to generalized density rwf, IOpCl= 0 IROHF=0.

 **********************************************************************

            Population analysis using the SCF density.

 **********************************************************************

 Alpha  occ. eigenvalues --  -10.17769 -10.17747  -0.75231  -0.61297  -0.43863
 Alpha  occ. eigenvalues --   -0.43800  -0.35616  -0.34766  -0.34734
 Alpha virt. eigenvalues --    0.01740   0.03167   0.05277   0.05292   0.07951
 Alpha virt. eigenvalues --    0.08963   0.08968   0.14220   0.18948   0.19029
 Alpha virt. eigenvalues --    0.20426   0.20544   0.24498   0.29398   0.32760
 Alpha virt. eigenvalues --    0.62142   0.64311   0.64383   0.66429   0.66531
 Alpha virt. eigenvalues --    0.69190   0.92061   0.92108   0.97097   0.97155
 Alpha virt. eigenvalues --    0.99583   1.09569   1.11204   1.32048   1.32287
 Alpha virt. eigenvalues --    1.46236   1.68715   1.68962   1.89235   2.04131
 Alpha virt. eigenvalues --    2.04282   2.08544   2.08762   2.09082   2.09181
 Alpha virt. eigenvalues --    2.29110   2.29418   2.37945   2.49081   2.49465
 Alpha virt. eigenvalues --    2.65996   2.71849   2.80387   2.80457   2.91188
 Alpha virt. eigenvalues --    2.91746   3.21935   3.28058   3.36153   3.36452
 Alpha virt. eigenvalues --    3.51873   3.51992   4.33275   4.58082
          Condensed to atoms (all electrons):
              1          2          3          4          5          6
     1  C    5.102587   0.258425   0.404818   0.404317   0.404887  -0.046429
     2  C    0.258425   5.097315  -0.046240  -0.044638  -0.046263   0.405226
     3  H    0.404818  -0.046240   0.556811  -0.028333  -0.027674   0.004754
     4  H    0.404317  -0.044638  -0.028333   0.555949  -0.028363  -0.004333
     5  H    0.404887  -0.046263  -0.027674  -0.028363   0.556595  -0.004435
     6  H   -0.046429   0.405226   0.004754  -0.004333  -0.004435   0.555962
     7  H   -0.046463   0.405302  -0.004435  -0.004336   0.004765  -0.027799
     8  H   -0.047200   0.406407  -0.004478   0.004673  -0.004481  -0.027969
              7          8
     1  C   -0.046463  -0.047200
     2  C    0.405302   0.406407
     3  H   -0.004435  -0.004478
     4  H   -0.004336   0.004673
     5  H    0.004765  -0.004481
     6  H   -0.027799  -0.027969
     7  H    0.555771  -0.027993
     8  H   -0.027993   0.555584
 Mulliken atomic charges:
              1
     1  C   -0.434943
     2  C   -0.435535
     3  H    0.144777
     4  H    0.145066
     5  H    0.144968
     6  H    0.145022
     7  H    0.145187
     8  H    0.145457
 Sum of Mulliken atomic charges =  -0.00000
 Mulliken charges with hydrogens summed into heavy atoms:
              1
     1  C   -0.000132
     2  C    0.000132
 Sum of Mulliken charges with hydrogens summed into heavy atoms =  -0.00000
 Electronic spatial extent (au):  <R**2>=            148.7458
 Charge=              0.0000 electrons
 Dipole moment (field-independent basis, Debye):
    X=              0.0001    Y=              0.0004    Z=             -0.0015  Tot=              0.0015
 Quadrupole moment (field-independent basis, Debye-Ang):
   XX=            -14.9444   YY=            -14.9530   ZZ=            -16.2004
   XY=             -0.0072   XZ=              0.0150   YZ=              0.0235
 Traceless Quadrupole moment (field-independent basis, Debye-Ang):
   XX=              0.4215   YY=              0.4129   ZZ=             -0.8345
   XY=             -0.0072   XZ=              0.0150   YZ=              0.0235
 Octapole moment (field-independent basis, Debye-Ang**2):
  XXX=             -0.0133  YYY=             -0.0062  ZZZ=            -37.5937  XYY=              0.0072
  XXY=             -0.0021  XXZ=            -11.5409  XZZ=              0.0007  YZZ=             -0.0020
  YYZ=            -11.5435  XYZ=             -0.0022
 Hexadecapole moment (field-independent basis, Debye-Ang**3):
 XXXX=            -31.3658 YYYY=            -31.3332 ZZZZ=           -157.8361 XXXY=              0.0044
 XXXZ=             -1.3088 YYYX=             -0.0005 YYYZ=              0.0023 ZZZX=              0.0348
 ZZZY=              0.0279 XXYY=            -10.4530 XXZZ=            -29.6456 YYZZ=            -29.6233
 XXYZ=              0.0008 YYXZ=              1.3278 ZZXY=              0.0163
 N-N= 4.205820577714D+01 E-N=-2.678559694753D+02  KE= 7.896699476897D+01
 No NMR shielding tensors so no spin-rotation constants.
 Leave Link  601 at Thu May 27 13:53:35 2021, MaxMem=   13107200 cpu:       0.0
 (Enter /programs/64bit/g09/g09-gfortran/bin/l701.exe)
 Compute integral first derivatives.
 ... and contract with generalized density number  0.
 Leave Link  701 at Thu May 27 13:53:35 2021, MaxMem=   13107200 cpu:       0.0
 (Enter /programs/64bit/g09/g09-gfortran/bin/l702.exe)
 L702 exits ... SP integral derivatives will be done elsewhere.
 Leave Link  702 at Thu May 27 13:53:35 2021, MaxMem=   13107200 cpu:       0.0
 (Enter /programs/64bit/g09/g09-gfortran/bin/l703.exe)
 Compute integral first derivatives, UseDBF=F ICtDFT=           0.
 Integral derivatives from FoFDir, PRISM(SPDF).
 Calling FoFJK, ICntrl=      2127 FMM=F ISym2X=0 I1Cent= 0 IOpClX= 0 NMat=1 NMatS=1 NMatT=0.
 FoFCou: FMM=F IPFlag=           0 FMFlag=      100000 FMFlg1=         800
         NFxFlg=           0 DoJE=F BraDBF=F KetDBF=F FulRan=T
         Omega=  0.000000  0.000000  1.000000  0.000000  0.000000 ICntrl=    2127 IOpCl=  0
         NMat0=    1 NMatS0=    1 NMatT0=    0 NMatD0=    1 NMtDS0=    0 NMtDT0=    0
         I1Cent=           0 NGrid=           0.
 Symmetry not used in FoFCou.
 Leave Link  703 at Thu May 27 13:53:36 2021, MaxMem=   13107200 cpu:       1.1
 (Enter /programs/64bit/g09/g09-gfortran/bin/l716.exe)
 Dipole        = 3.66713570D-05 1.58400555D-04-5.78309365D-04
 -------------------------------------------------------------------
 Center     Atomic                   Forces (Hartrees/Bohr)
 Number     Number              X              Y              Z
 -------------------------------------------------------------------
      1        6           0.000903650    0.000495514    0.012770663
      2        6          -0.001168379   -0.001132553   -0.014927002
      3        1          -0.002312335    0.000477816   -0.004532290
      4        1           0.000715193    0.001213568   -0.003158961
      5        1           0.001254481   -0.001191160   -0.004775896
      6        1           0.002321245   -0.000011754    0.004820161
      7        1          -0.000906099    0.001528409    0.005027275
      8        1          -0.000807756   -0.001379840    0.004776050
 -------------------------------------------------------------------
 Cartesian Forces:  Max     0.014927002 RMS     0.004725449
 -----------------------------------------------------------------------------------------------
                       Internal Coordinate Forces (Hartree/Bohr or radian)
  Cent   Atom   N1       Length/X         N2         Alpha/Y        N3         Beta/Z          J
 -----------------------------------------------------------------------------------------------
      1  C 
      2  C        1  -0.000304(     1)
      3  H        1  -0.000709(     2)      2   0.010431(     8)
      4  H        1  -0.000242(     3)      2   0.007138(     9)      3  -0.000024(    14)     0
      5  H        1  -0.000012(     4)      2   0.010456(    10)      3   0.000960(    15)     0
      6  H        2  -0.000624(     5)      1   0.010997(    11)      3   0.000002(    16)     0
      7  H        2  -0.000042(     6)      1   0.011026(    12)      6  -0.000040(    17)     0
      8  H        2   0.000045(     7)      1   0.010412(    13)      6   0.000019(    18)     0
 -----------------------------------------------------------------------------------------------
 Internal  Forces:  Max     0.011025851 RMS     0.005878274
 Force constants in Cartesian coordinates: 
                1             2             3             4             5 
      1  0.653279D+00
      2 -0.107088D-02  0.653002D+00
      3  0.227757D-02  0.334635D-02  0.593204D+00
      4 -0.850702D-01 -0.160725D-03 -0.482355D-04  0.656121D+00
      5 -0.160725D-03 -0.852706D-01 -0.127213D-03  0.105323D-03  0.657043D+00
      6  0.244277D-04  0.594969D-05 -0.278608D+00  0.335612D-03  0.818511D-04
      7 -0.309994D+00 -0.799367D-04  0.820760D-01  0.863882D-02 -0.163717D-05
      8 -0.254015D-03 -0.782889D-01 -0.168796D-03 -0.612354D-05  0.727034D-03
      9  0.922411D-01 -0.231940D-03 -0.103637D+00  0.250660D-01 -0.475032D-05
     10 -0.135795D+00 -0.993028D-01 -0.429356D-01  0.284238D-02  0.360395D-02
     11 -0.992738D-01 -0.250413D+00 -0.743355D-01  0.360353D-02  0.700315D-02
     12 -0.480239D-01 -0.831699D-01 -0.107082D+00 -0.124680D-01 -0.215952D-01
     13 -0.136458D+00  0.100613D+00 -0.413698D-01  0.271061D-02 -0.343420D-02
     14  0.100758D+00 -0.253075D+00  0.712851D-01 -0.342929D-02  0.666376D-02
     15 -0.464947D-01  0.800555D-01 -0.103877D+00 -0.125497D-01  0.217272D-01
     16  0.864058D-02  0.000000D+00  0.000000D+00 -0.310438D+00  0.000000D+00
     17 -0.993979D-05  0.720979D-03  0.000000D+00  0.143178D-04 -0.792250D-01
     18  0.250714D-01  0.000000D+00  0.000000D+00  0.920659D-01 -0.141075D-05
     19  0.270693D-02 -0.344041D-02  0.000000D+00 -0.137358D+00  0.100506D+00
     20 -0.342996D-02  0.666147D-02  0.000000D+00  0.100467D+00 -0.253350D+00
     21 -0.125462D-01  0.217307D-01  0.000000D+00 -0.461784D-01  0.799718D-01
     22  0.269041D-02  0.344136D-02  0.000000D+00 -0.137447D+00 -0.100619D+00
     23  0.344086D-02  0.666328D-02  0.000000D+00 -0.100594D+00 -0.253592D+00
     24 -0.125497D-01 -0.217367D-01  0.000000D+00 -0.462232D-01 -0.800522D-01
                6             7             8             9            10 
      6  0.588419D+00
      7  0.000000D+00  0.311475D+00
      8  0.000000D+00  0.951512D-04  0.583615D-01
      9  0.000000D+00 -0.879458D-01  0.276086D-03  0.866055D-01
     10  0.000000D+00 -0.513690D-02 -0.271577D-01 -0.149050D-01  0.121285D+00
     11  0.000000D+00  0.171263D-02  0.940497D-02  0.496927D-02  0.108472D+00
     12  0.000000D+00  0.297917D-02  0.149166D-01  0.864420D-02  0.460727D-01
     13  0.000000D+00 -0.498226D-02  0.273226D-01 -0.144563D-01  0.168044D-01
     14  0.000000D+00 -0.172620D-02  0.979595D-02 -0.500867D-02  0.143852D-01
     15  0.000000D+00  0.289058D-02 -0.150239D-01  0.838715D-02  0.117679D-01
     16  0.823867D-01  0.000000D+00  0.000000D+00  0.000000D+00  0.000000D+00
     17 -0.416473D-05  0.000000D+00  0.600537D-03  0.000000D+00  0.523707D-03
     18 -0.103115D+00  0.000000D+00  0.000000D+00  0.000000D+00  0.000000D+00
     19 -0.413516D-01  0.000000D+00 -0.520514D-03  0.000000D+00 -0.453923D-03
     20  0.715893D-01  0.000000D+00 -0.300519D-03  0.000000D+00 -0.262073D-03
     21 -0.103315D+00  0.000000D+00  0.000000D+00  0.000000D+00  0.000000D+00
     22 -0.413951D-01  0.000000D+00  0.520656D-03  0.000000D+00  0.454047D-03
     23 -0.716729D-01  0.000000D+00 -0.300601D-03  0.000000D+00 -0.262144D-03
     24 -0.103381D+00  0.000000D+00  0.000000D+00  0.000000D+00  0.000000D+00
               11            12            13            14            15 
     11  0.246537D+00
     12  0.798001D-01  0.897848D-01
     13 -0.145142D-01  0.114400D-01  0.121926D+00
     14 -0.125321D-01  0.100484D-01 -0.109988D+00  0.249147D+00
     15 -0.104339D-01  0.865274D-02  0.443860D-01 -0.763249D-01  0.868376D-01
     16  0.000000D+00  0.000000D+00  0.000000D+00  0.000000D+00  0.000000D+00
     17 -0.302363D-03  0.000000D+00 -0.520600D-03 -0.300571D-03  0.000000D+00
     18  0.000000D+00  0.000000D+00  0.000000D+00  0.000000D+00  0.000000D+00
     19  0.262073D-03  0.000000D+00  0.451229D-03  0.260519D-03  0.000000D+00
     20  0.151308D-03  0.000000D+00  0.260517D-03  0.150411D-03  0.000000D+00
     21  0.000000D+00  0.000000D+00  0.000000D+00  0.000000D+00  0.000000D+00
     22 -0.262144D-03  0.000000D+00 -0.451352D-03 -0.260590D-03  0.000000D+00
     23  0.151349D-03  0.000000D+00  0.260588D-03  0.150452D-03  0.000000D+00
     24  0.000000D+00  0.000000D+00  0.000000D+00  0.000000D+00  0.000000D+00
               16            17            18            19            20 
     16  0.311771D+00
     17  0.000000D+00  0.589009D-01
     18 -0.881992D-01  0.000000D+00  0.862494D-01
     19 -0.498591D-02  0.273346D-01 -0.144671D-01  0.122426D+00
     20 -0.172221D-02  0.980142D-02 -0.499716D-02 -0.109858D+00  0.249279D+00
     21  0.290589D-02 -0.150275D-01  0.843170D-02  0.442445D-01 -0.766336D-01
     22 -0.498728D-02 -0.273421D-01 -0.144711D-01  0.172141D-01  0.145446D-01
     23  0.172269D-02  0.980410D-02  0.499855D-02 -0.145446D-01 -0.123933D-01
     24  0.290668D-02  0.150316D-01  0.843399D-02  0.115742D-01  0.100415D-01
               21            22            23            24 
     21  0.864425D-01
     22  0.115741D-01  0.122527D+00
     23 -0.100415D-01  0.109977D+00  0.249517D+00
     24  0.844099D-02  0.442920D-01  0.767158D-01  0.865057D-01
 Force constants in internal coordinates: 
                1             2             3             4             5 
      1  0.278608D+00
      2  0.000000D+00  0.341784D+00
      3  0.000000D+00  0.000000D+00  0.342731D+00
      4  0.000000D+00  0.000000D+00  0.000000D+00  0.343023D+00
      5  0.000000D+00  0.000000D+00  0.000000D+00  0.000000D+00  0.342168D+00
      6  0.000000D+00  0.000000D+00  0.000000D+00  0.000000D+00  0.000000D+00
      7  0.000000D+00  0.000000D+00  0.000000D+00  0.000000D+00  0.000000D+00
      8  0.000000D+00  0.000000D+00  0.000000D+00  0.000000D+00  0.000000D+00
      9  0.000000D+00  0.000000D+00  0.000000D+00  0.000000D+00  0.000000D+00
     10  0.000000D+00  0.000000D+00  0.000000D+00  0.000000D+00  0.000000D+00
     11  0.000000D+00  0.000000D+00  0.000000D+00  0.000000D+00  0.000000D+00
     12  0.000000D+00  0.000000D+00  0.000000D+00  0.000000D+00  0.000000D+00
     13  0.000000D+00  0.000000D+00  0.000000D+00  0.000000D+00  0.000000D+00
     14  0.000000D+00  0.000000D+00  0.000000D+00  0.000000D+00  0.000000D+00
     15  0.000000D+00  0.000000D+00  0.000000D+00  0.000000D+00  0.000000D+00
     16  0.000000D+00  0.000000D+00  0.000000D+00  0.000000D+00  0.000000D+00
     17  0.000000D+00  0.000000D+00  0.000000D+00  0.000000D+00  0.000000D+00
     18  0.000000D+00  0.000000D+00  0.000000D+00  0.000000D+00  0.000000D+00
                6             7             8             9            10 
      6  0.343202D+00
      7  0.000000D+00  0.343541D+00
      8  0.000000D+00  0.000000D+00  0.241291D+00
      9  0.000000D+00  0.000000D+00  0.416764D-01  0.240587D+00
     10  0.000000D+00  0.000000D+00  0.401782D-01  0.416758D-01  0.241291D+00
     11  0.000000D+00  0.000000D+00  0.000000D+00  0.000000D+00  0.000000D+00
     12  0.000000D+00  0.000000D+00  0.000000D+00  0.000000D+00  0.000000D+00
     13  0.000000D+00  0.000000D+00  0.000000D+00  0.000000D+00  0.000000D+00
     14  0.000000D+00  0.000000D+00 -0.655184D-01  0.000000D+00  0.655187D-01
     15  0.000000D+00  0.000000D+00  0.643299D-01 -0.642823D-01 -0.118348D-02
     16  0.000000D+00  0.000000D+00  0.000000D+00  0.000000D+00  0.000000D+00
     17  0.000000D+00  0.000000D+00  0.000000D+00  0.000000D+00  0.000000D+00
     18  0.000000D+00  0.000000D+00  0.000000D+00  0.000000D+00  0.000000D+00
               11            12            13            14            15 
     11  0.239243D+00
     12  0.403732D-01  0.239244D+00
     13  0.403731D-01  0.403729D-01  0.239244D+00
     14  0.000000D+00  0.000000D+00  0.000000D+00  0.221623D+00
     15  0.000000D+00  0.000000D+00  0.000000D+00 -0.107372D+00  0.223588D+00
     16  0.000000D+00  0.000000D+00  0.000000D+00  0.690000D-02  0.690000D-02
     17 -0.643161D-01  0.000000D+00  0.643167D-01  0.230000D-02  0.230000D-02
     18  0.643162D-01 -0.643167D-01  0.000000D+00  0.230000D-02  0.230000D-02
               16            17            18 
     16  0.207000D-01
     17  0.689995D-02  0.225515D+00
     18  0.689987D-02 -0.109308D+00  0.225515D+00
 Leave Link  716 at Thu May 27 13:53:36 2021, MaxMem=   13107200 cpu:       0.0
 (Enter /programs/64bit/g09/g09-gfortran/bin/l103.exe)

 GradGradGradGradGradGradGradGradGradGradGradGradGradGradGradGradGradGrad
 Berny optimization.
 Search for a local minimum.
 Step number   1 out of a maximum of    2
 All quantities printed in internal units (Hartrees-Bohrs-Radians)
 Second derivative matrix not updated -- first step.
 The second derivative matrix:
                          d1        a1        t1        d2        a2
           d1           0.27861
           a1           0.00000   0.24129
           t1           0.00000  -0.06552   0.22162
           d2           0.00000   0.00000  -0.00000   0.34178
           a2          -0.00000   0.04168   0.00000   0.00000   0.24059
           t2           0.00000   0.06433  -0.10737   0.00000  -0.06428
           d3           0.00000   0.00000  -0.00000  -0.00000  -0.00000
           d4          -0.00000  -0.00000   0.00000   0.00000   0.00000
           a3           0.00000   0.04018   0.06552   0.00000   0.04168
           d5           0.00000   0.00000  -0.00000   0.00000   0.00000
           a4           0.00000   0.00000   0.00000   0.00000  -0.00000
           t3           0.00000   0.00000   0.00690   0.00000  -0.00000
           d6          -0.00000   0.00000   0.00000   0.00000   0.00000
           a5          -0.00000   0.00000  -0.00000   0.00000  -0.00000
           t4           0.00000   0.00000   0.00230   0.00000  -0.00000
           d7          -0.00000   0.00000   0.00000   0.00000   0.00000
           a6           0.00000   0.00000  -0.00000   0.00000  -0.00000
           t5          -0.00000   0.00000   0.00230   0.00000  -0.00000
                          t2        d3        d4        a3        d5
           t2           0.22359
           d3          -0.00000   0.34273
           d4          -0.00000   0.00000   0.34302
           a3          -0.00118   0.00000   0.00000   0.24129
           d5           0.00000  -0.00000   0.00000  -0.00000   0.34217
           a4          -0.00000   0.00000  -0.00000   0.00000   0.00000
           t3           0.00690   0.00000  -0.00000   0.00000  -0.00000
           d6           0.00000  -0.00000   0.00000  -0.00000  -0.00000
           a5           0.00000   0.00000  -0.00000   0.00000  -0.00000
           t4           0.00230   0.00000  -0.00000   0.00000   0.00000
           d7          -0.00000  -0.00000  -0.00000   0.00000  -0.00000
           a6           0.00000   0.00000   0.00000  -0.00000   0.00000
           t5           0.00230   0.00000  -0.00000   0.00000  -0.00000
                          a4        t3        d6        a5        t4
           a4           0.23924
           t3           0.00000   0.02070
           d6          -0.00000  -0.00000   0.34320
           a5           0.04037  -0.00000  -0.00000   0.23924
           t4          -0.06432   0.00690  -0.00000   0.00000   0.22552
           d7          -0.00000  -0.00000  -0.00000  -0.00000  -0.00000
           a6           0.04037   0.00000  -0.00000   0.04037   0.06432
           t5           0.06432   0.00690   0.00000  -0.06432  -0.10931
                          d7        a6        t5
           d7           0.34354
           a6          -0.00000   0.23924
           t5          -0.00000  -0.00000   0.22552
     Eigenvalues --- 1000.000001000.000001000.000001000.000001000.00000
     Eigenvalues --- 1000.000001000.000001000.000001000.000001000.00000
     Eigenvalues --- 1000.000001000.000001000.000001000.000001000.00000
     Eigenvalues --- 1000.000001000.000001000.00000
 Angle between quadratic step and forces=  90.00 degrees.
 Linear search not attempted -- first point.
 Variable       Old X    -DE/DX   Delta X   Delta X   Delta X     New X
                                 (Linear)    (Quad)   (Total)
    d1        2.92444  -0.00030   0.00000   0.00000   0.00000   2.92444
    a1        1.90269   0.01043   0.00000   0.00000   0.00000   1.90269
    t1        2.09440  -0.00002   0.00000   0.00000   0.00000   2.09440
    d2        2.07030  -0.00071   0.00000   0.00000   0.00000   2.07030
    a2        1.92014   0.00714   0.00000   0.00000   0.00000   1.92014
    t2       -2.09440   0.00096   0.00000   0.00000   0.00000  -2.09440
    d3        2.06872  -0.00024   0.00000   0.00000   0.00000   2.06872
    d4        2.06823  -0.00001   0.00000   0.00000   0.00000   2.06823
    a3        1.90269   0.01046   0.00000   0.00000   0.00000   1.90269
    d5        2.06966  -0.00062   0.00000   0.00000   0.00000   2.06966
    a4        1.90269   0.01100   0.00000   0.00000   0.00000   1.90269
    t3        3.14159   0.00000   0.00000   0.00000   0.00000   3.14159
    d6        2.06793  -0.00004   0.00000   0.00000   0.00000   2.06793
    a5        1.90269   0.01103   0.00000   0.00000   0.00000   1.90269
    t4        2.09440  -0.00004   0.00000   0.00000   0.00000   2.09440
    d7        2.06737   0.00004   0.00000   0.00000   0.00000   2.06737
    a6        1.90269   0.01041   0.00000   0.00000   0.00000   1.90269
    t5       -2.09440   0.00002   0.00000   0.00000   0.00000  -2.09440
         Item               Value     Threshold  Converged?
 Maximum Force            0.000000     0.000450     YES
 RMS     Force            0.000000     0.000300     YES
 Maximum Displacement     0.000000     0.001800     YES
 RMS     Displacement     0.000000     0.001200     YES
 Predicted change in Energy=-0.000000D+00
 Optimization completed.
    -- Stationary point found.
                       ----------------------------
                       !   Optimized Parameters   !
                       ! (Angstroms and Degrees)  !
 ----------------------                            ----------------------
 !      Name          Value   Derivative information (Atomic Units)     !
 ------------------------------------------------------------------------
 !       d1          1.5475   -DE/DX =   -0.0003                        !
 !       a1        109.0162   -DE/DX =    0.0104                        !
 !       t1        120.0      -DE/DX =    0.0                           !
 !       d2          1.0956   -DE/DX =   -0.0007                        !
 !       a2        110.0161   -DE/DX =    0.0071                        !
 !       t2       -120.0002   -DE/DX =    0.001                         !
 !       d3          1.0947   -DE/DX =   -0.0002                        !
 !       d4          1.0945   -DE/DX =    0.0                           !
 !       a3        109.0161   -DE/DX =    0.0105                        !
 !       d5          1.0952   -DE/DX =   -0.0006                        !
 !       a4        109.0159   -DE/DX =    0.011                         !
 !       t3        180.0      -DE/DX =    0.0                           !
 !       d6          1.0943   -DE/DX =    0.0                           !
 !       a5        109.0159   -DE/DX =    0.011                         !
 !       t4        120.0      -DE/DX =    0.0                           !
 !       d7          1.094    -DE/DX =    0.0                           !
 !       a6        109.0158   -DE/DX =    0.0104                        !
 !       t5       -120.0      -DE/DX =    0.0                           !
 ------------------------------------------------------------------------
 GradGradGradGradGradGradGradGradGradGradGradGradGradGradGradGradGradGrad

 Leave Link  103 at Thu May 27 13:53:36 2021, MaxMem=   13107200 cpu:       0.0
 (Enter /programs/64bit/g09/g09-gfortran/bin/l9999.exe)
 1\1\GINC-MOLMOD\Force\RB3LYP\6-31+G(d,p)\C2H6\OSPITE\27-May-2021\1\\#p
  b3lyp/6-31+g(d,p) force nosym\\c2h6 molecule\\0,1\C\C,1,d1\H,1,d2,2,a
 1\H,1,d3,2,a2,3,t1,0\H,1,d4,2,a3,3,t2,0\H,2,d5,1,a4,3,t3,0\H,2,d6,1,a5
 ,6,t4,0\H,2,d7,1,a6,6,t5,0\\d1=1.54754609\a1=109.01617945\t1=120.00003
 066\d2=1.09555544\a2=110.01610515\t2=-120.00020341\d3=1.09471787\d4=1.
 09445946\a3=109.01608627\d5=1.095216\a4=109.01591795\t3=179.99999825\d
 6=1.0943019\a5=109.01586161\t4=120.00002428\d7=1.09400297\a6=109.01583
 467\t5=-120.00001912\\Version=EM64L-G09RevA.02\HF=-79.8404566\RMSD=2.0
 55e-09\RMSF=4.725e-03\Dipole=0.0000367,0.0001584,-0.0005783\Quadrupole
 =0.3134044,0.3070146,-0.620419,-0.0053722,0.0111758,0.0174589\PG=C01 [
 X(C2H6)]\\@


      THE ONE-EYED VIEW OF OUR UNIVERSE SAYS YOU MUST NOT LOOK
      FAR AFIELD FOR PROBLEMS.  SUCH PROBLEMS MAY NEVER ARRIVE. 
      INSTEAD, TEND TO THE WOLF WITHIN YOUR FENCES.
      THE PACKS RANGING OUTSIDE MAY NOT EVEN EXIST.

                              -- THE AZHAR BOOK SHAMRA I:4
                                 CHILDREN OF DUNE, BY FRANK HERBERT
 Job cpu time:  0 days  0 hours  0 minutes  6.8 seconds.
 File lengths (MBytes):  RWF=      5 Int=      0 D2E=      0 Chk=      1 Scr=      1
 Normal termination of Gaussian 09 at Thu May 27 13:53:36 2021.
