 Entering Gaussian System, Link 0=g09
 Input=c2h6_002.com
 Output=c2h6_002.log
 Initial command:
 /programs/64bit/g09/g09-gfortran/bin/l1.exe /data/scratch/Gau-16865.inp -scrdir=/data/scratch/
 Entering Link 1 = /programs/64bit/g09/g09-gfortran/bin/l1.exe PID=     16866.
  
 Copyright (c) 1988,1990,1992,1993,1995,1998,2003,2009, Gaussian, Inc.
                  All Rights Reserved.
  
 This is part of the Gaussian(R) 09 program.  It is based on
 the Gaussian(R) 03 system (copyright 2003, Gaussian, Inc.),
 the Gaussian(R) 98 system (copyright 1998, Gaussian, Inc.),
 the Gaussian(R) 94 system (copyright 1995, Gaussian, Inc.),
 the Gaussian 92(TM) system (copyright 1992, Gaussian, Inc.),
 the Gaussian 90(TM) system (copyright 1990, Gaussian, Inc.),
 the Gaussian 88(TM) system (copyright 1988, Gaussian, Inc.),
 the Gaussian 86(TM) system (copyright 1986, Carnegie Mellon
 University), and the Gaussian 82(TM) system (copyright 1983,
 Carnegie Mellon University). Gaussian is a federally registered
 trademark of Gaussian, Inc.
  
 This software contains proprietary and confidential information,
 including trade secrets, belonging to Gaussian, Inc.
  
 This software is provided under written license and may be
 used, copied, transmitted, or stored only in accord with that
 written license.
  
 The following legend is applicable only to US Government
 contracts under FAR:
  
                    RESTRICTED RIGHTS LEGEND
  
 Use, reproduction and disclosure by the US Government is
 subject to restrictions as set forth in subparagraphs (a)
 and (c) of the Commercial Computer Software - Restricted
 Rights clause in FAR 52.227-19.
  
 Gaussian, Inc.
 340 Quinnipiac St., Bldg. 40, Wallingford CT 06492
  
  
 ---------------------------------------------------------------
 Warning -- This program may not be used in any manner that
 competes with the business of Gaussian, Inc. or will provide
 assistance to any competitor of Gaussian, Inc.  The licensee
 of this program is prohibited from giving any competitor of
 Gaussian, Inc. access to this program.  By using this program,
 the user acknowledges that Gaussian, Inc. is engaged in the
 business of creating and licensing software in the field of
 computational chemistry and represents and warrants to the
 licensee that it is not a competitor of Gaussian, Inc. and that
 it will not use this program in any manner prohibited above.
 ---------------------------------------------------------------
  

 Cite this work as:
 Gaussian 09, Revision A.02,
 M. J. Frisch, G. W. Trucks, H. B. Schlegel, G. E. Scuseria, 
 M. A. Robb, J. R. Cheeseman, G. Scalmani, V. Barone, B. Mennucci, 
 G. A. Petersson, H. Nakatsuji, M. Caricato, X. Li, H. P. Hratchian, 
 A. F. Izmaylov, J. Bloino, G. Zheng, J. L. Sonnenberg, M. Hada, 
 M. Ehara, K. Toyota, R. Fukuda, J. Hasegawa, M. Ishida, T. Nakajima, 
 Y. Honda, O. Kitao, H. Nakai, T. Vreven, J. A. Montgomery, Jr., 
 J. E. Peralta, F. Ogliaro, M. Bearpark, J. J. Heyd, E. Brothers, 
 K. N. Kudin, V. N. Staroverov, R. Kobayashi, J. Normand, 
 K. Raghavachari, A. Rendell, J. C. Burant, S. S. Iyengar, J. Tomasi, 
 M. Cossi, N. Rega, J. M. Millam, M. Klene, J. E. Knox, J. B. Cross, 
 V. Bakken, C. Adamo, J. Jaramillo, R. Gomperts, R. E. Stratmann, 
 O. Yazyev, A. J. Austin, R. Cammi, C. Pomelli, J. W. Ochterski, 
 R. L. Martin, K. Morokuma, V. G. Zakrzewski, G. A. Voth, 
 P. Salvador, J. J. Dannenberg, S. Dapprich, A. D. Daniels, 
 O. Farkas, J. B. Foresman, J. V. Ortiz, J. Cioslowski, 
 and D. J. Fox, Gaussian, Inc., Wallingford CT, 2009.
 
 ******************************************
 Gaussian 09:  EM64L-G09RevA.02 11-Jun-2009
                27-May-2021 
 ******************************************
 %chk=c2h6_002.chk
 %mem=100MB
 --------------------------------
 #p b3lyp/6-31+g(d,p) force nosym
 --------------------------------
 1/10=7,30=1,38=1/1,3;
 2/12=2,15=1,17=6,18=5,40=1/2;
 3/5=1,6=6,7=111,11=2,16=1,25=1,30=1,71=1,74=-5/1,2,3;
 4//1;
 5/5=2,38=5/2;
 6/7=2,8=2,9=2,10=2,28=1/1;
 7/29=1,30=1/1,2,3,16;
 1/10=7,30=1/3;
 99//99;
 Leave Link    1 at Thu May 27 13:49:27 2021, MaxMem=   13107200 cpu:       0.0
 (Enter /programs/64bit/g09/g09-gfortran/bin/l101.exe)
 -------------
 c2h6 molecule
 -------------
 Symbolic Z-matrix:
 Charge =  0 Multiplicity = 1
 C1
 C2                   1    d1
 H3                   1    d2       2    a1
 H4                   1    d3       2    a2       3    t1       0
 H5                   1    d4       2    a3       3    t2       0
 H6                   2    d5       1    a4       3    t3       0
 H7                   2    d6       1    a5       6    t4       0
 H8                   2    d7       1    a6       6    t5       0
       Variables:
       Constants:
  d1                    3.63201                  
  a1                  109.00123                  
  t1                  120.00003                  
  d2                    1.15038                  
  a2                  110.00106                  
  t2                 -120.                       
  d3                    1.13882                  
  d4                    1.1257                   
  a3                  109.00117                  
  d5                    1.15019                  
  a4                  109.00124                  
  t3                  180.                       
  d6                    1.13919                  
  a5                  109.00116                  
  t4                  120.00003                  
  d7                    1.12457                  
  a6                  109.00117                  
  t5                 -120.00002                  
 
 NAtoms=      8 NQM=      8 NQMF=      0 NMic=      0 NMicF=      0 NTot=      8.
                    Isotopes and Nuclear Properties:
 (Nuclear quadrupole moments (NQMom) in fm**2, nuclear magnetic moments (NMagM)
  in nuclear magnetons)

  Atom         1           2           3           4           5           6           7           8
 IAtWgt=          12          12           1           1           1           1           1           1
 AtmWgt=  12.0000000  12.0000000   1.0078250   1.0078250   1.0078250   1.0078250   1.0078250   1.0078250
 NucSpn=           0           0           1           1           1           1           1           1
 AtZEff=   0.0000000   0.0000000   0.0000000   0.0000000   0.0000000   0.0000000   0.0000000   0.0000000
 NQMom=    0.0000000   0.0000000   0.0000000   0.0000000   0.0000000   0.0000000   0.0000000   0.0000000
 NMagM=    0.0000000   0.0000000   2.7928460   2.7928460   2.7928460   2.7928460   2.7928460   2.7928460
 Leave Link  101 at Thu May 27 13:49:27 2021, MaxMem=   13107200 cpu:       0.0
 (Enter /programs/64bit/g09/g09-gfortran/bin/l103.exe)

 GradGradGradGradGradGradGradGradGradGradGradGradGradGradGradGradGradGrad
 Berny optimization.
 Initialization pass.
                       ----------------------------
                       !    Initial Parameters    !
                       ! (Angstroms and Degrees)  !
 ----------------------                            ----------------------
 !      Name          Value   Derivative information (Atomic Units)     !
 ------------------------------------------------------------------------
 !       d1          3.632    Frozen                                    !
 !       a1        109.0012   Frozen                                    !
 !       t1        120.0      Frozen                                    !
 !       d2          1.1504   Frozen                                    !
 !       a2        110.0011   Frozen                                    !
 !       t2       -120.0      Frozen                                    !
 !       d3          1.1388   Frozen                                    !
 !       d4          1.1257   Frozen                                    !
 !       a3        109.0012   Frozen                                    !
 !       d5          1.1502   Frozen                                    !
 !       a4        109.0012   Frozen                                    !
 !       t3        180.0      Frozen                                    !
 !       d6          1.1392   Frozen                                    !
 !       a5        109.0012   Frozen                                    !
 !       t4        120.0      Frozen                                    !
 !       d7          1.1246   Frozen                                    !
 !       a6        109.0012   Frozen                                    !
 !       t5       -120.0      Frozen                                    !
 ------------------------------------------------------------------------
 Trust Radius=3.00D-01 FncErr=1.00D-07 GrdErr=1.00D-07
 Number of steps in this run=   2 maximum allowed number of steps=   2.
 GradGradGradGradGradGradGradGradGradGradGradGradGradGradGradGradGradGrad

 Leave Link  103 at Thu May 27 13:49:27 2021, MaxMem=   13107200 cpu:       0.0
 (Enter /programs/64bit/g09/g09-gfortran/bin/l202.exe)
                          Input orientation:                          
 ---------------------------------------------------------------------
 Center     Atomic      Atomic             Coordinates (Angstroms)
 Number     Number       Type             X           Y           Z
 ---------------------------------------------------------------------
      1          6           0        0.000000    0.000000    0.000000
      2          6           0        0.000000    0.000000    3.632008
      3          1           0        1.087693    0.000000   -0.374549
      4          1           0       -0.535066   -0.926760   -0.389518
      5          1           0       -0.532182    0.921765   -0.366514
      6          1           0       -1.087515    0.000000    4.006495
      7          1           0        0.538562   -0.932815    4.002915
      8          1           0        0.531646    0.920837    3.998152
 ---------------------------------------------------------------------
                    Distance matrix (angstroms):
                    1          2          3          4          5
     1  C    0.000000
     2  C    3.632008   0.000000
     3  H    1.150375   4.151575   0.000000
     4  H    1.138817   4.161472   1.868811   0.000000
     5  H    1.125700   4.137758   1.863789   1.848671   0.000000
     6  H    4.151469   1.150186   4.891327   4.526480   4.503471
     7  H    4.145301   1.139195   4.509311   4.521746   4.865991
     8  H    4.137126   1.124566   4.503071   4.878846   4.492443
                    6          7          8
     6  H    0.000000
     7  H    1.874642   0.000000
     8  H    1.862710   1.853671   0.000000
 Symmetry turned off by external request.
 Stoichiometry    C2H6
 Framework group  C1[X(C2H6)]
 Deg. of freedom    18
 Full point group                 C1      NOp   1
 Rotational constants (GHZ):     72.3129464      4.5286630      4.5252848
 Leave Link  202 at Thu May 27 13:49:27 2021, MaxMem=   13107200 cpu:       0.0
 (Enter /programs/64bit/g09/g09-gfortran/bin/l301.exe)
 Standard basis: 6-31+G(d,p) (6D, 7F)
 Ernie: Thresh=  0.10000D-02 Tol=  0.10000D-05 Strict=F.
 Integral buffers will be    131072 words long.
 Raffenetti 2 integral format.
 Two-electron integral symmetry is turned off.
    68 basis functions,   106 primitive gaussians,    68 cartesian basis functions
     9 alpha electrons        9 beta electrons
       nuclear repulsion energy        29.3126525086 Hartrees.
 IExCor=  402 DFT=T Ex+Corr=B3LYP ExCW=0 ScaHFX=  0.200000
 ScaDFX=  0.800000  0.720000  1.000000  0.810000 ScalE2=  1.000000  1.000000
 IRadAn=      0 IRanWt=     -1 IRanGd=            0 ICorTp=0
 NAtoms=    8 NActive=    8 NUniq=    8 SFac= 7.50D-01 NAtFMM=   80 NAOKFM=F Big=F
 Leave Link  301 at Thu May 27 13:49:27 2021, MaxMem=   13107200 cpu:       0.0
 (Enter /programs/64bit/g09/g09-gfortran/bin/l302.exe)
 NPDir=0 NMtPBC=     1 NCelOv=     1 NCel=       1 NClECP=     1 NCelD=      1
         NCelK=      1 NCelE2=     1 NClLst=     1 CellRange=     0.0.
 One-electron integrals computed using PRISM.
 NBasis=    68 RedAO= T  NBF=    68
 NBsUse=    68 1.00D-06 NBFU=    68
 Precomputing XC quadrature grid using
 IXCGrd= 2 IRadAn=           0 IRanWt=          -1 IRanGd=           0 AccXCQ= 1.00D-10.
 NRdTot=     518 NPtTot=       65100 NUsed=       68843 NTot=       68875
 NSgBfM=    68    68    68    68    68 NAtAll=     8     8.
 Leave Link  302 at Thu May 27 13:49:28 2021, MaxMem=   13107200 cpu:       0.1
 (Enter /programs/64bit/g09/g09-gfortran/bin/l303.exe)
 DipDrv:  MaxL=1.
 Leave Link  303 at Thu May 27 13:49:28 2021, MaxMem=   13107200 cpu:       0.0
 (Enter /programs/64bit/g09/g09-gfortran/bin/l401.exe)
 Harris functional with IExCor=  402 diagonalized for initial guess.
 ExpMin= 4.38D-02 ExpMax= 3.05D+03 ExpMxC= 4.57D+02 IAcc=2 IRadAn=         0 AccDes= 0.00D+00
 HarFok:  IExCor=  402 AccDes= 0.00D+00 IRadAn=         0 IDoV= 1
 ScaDFX=  1.000000  1.000000  1.000000  1.000000
 FoFCou: FMM=F IPFlag=           0 FMFlag=      100000 FMFlg1=           0
         NFxFlg=           0 DoJE=T BraDBF=F KetDBF=T FulRan=T
         Omega=  0.000000  0.000000  1.000000  0.000000  0.000000 ICntrl=     500 IOpCl=  0
         NMat0=    1 NMatS0=    1 NMatT0=    0 NMatD0=    1 NMtDS0=    0 NMtDT0=    0
         I1Cent=           4 NGrid=           0.
 Symmetry not used in FoFCou.
 Harris En= -79.6586249071503    
 Leave Link  401 at Thu May 27 13:49:29 2021, MaxMem=   13107200 cpu:       0.9
 (Enter /programs/64bit/g09/g09-gfortran/bin/l502.exe)
 Closed shell SCF:
 Requested convergence on RMS density matrix=1.00D-08 within 128 cycles.
 Requested convergence on MAX density matrix=1.00D-06.
 Requested convergence on             energy=1.00D-06.
 No special actions if energy rises.
 Using DIIS extrapolation, IDIIS=  1040.
 Two-electron integral symmetry not used.
        68758 words used for storage of precomputed grid.
 Keep R1 ints in memory in canonical form, NReq=3743143.
 IEnd=      101608 IEndB=      101608 NGot=    13107200 MDV=    10273866
 LenX=    10273866 LenY=    10268801
 Symmetry not used in FoFDir.
 MinBra= 0 MaxBra= 2 Meth= 1.
 IRaf=       0 NMat=   1 IRICut=       1 DoRegI=T DoRafI=F ISym2E= 0 JSym2E=0.

 Cycle   1  Pass 1  IDiag  1:
 E= -79.5553820807394    
 DIIS: error= 2.85D-02 at cycle   1 NSaved=   1.
 NSaved= 1 IEnMin= 1 EnMin= -79.5553820807394     IErMin= 1 ErrMin= 2.85D-02
 ErrMax= 2.85D-02 EMaxC= 1.00D-01 BMatC= 5.61D-02 BMatP= 5.61D-02
 IDIUse=3 WtCom= 7.15D-01 WtEn= 2.85D-01
 Coeff-Com:  0.100D+01
 Coeff-En:   0.100D+01
 Coeff:      0.100D+01
 Gap=     0.074 Goal=   None    Shift=    0.000
 GapD=    0.074 DampG=0.500 DampE=0.500 DampFc=0.2500 IDamp=-1.
 Damping current iteration by 2.50D-01
 RMSDP=6.45D-03 MaxDP=1.05D-01              OVMax= 2.25D-01

 Cycle   2  Pass 1  IDiag  1:
 E= -79.5813545988207     Delta-E=       -0.025972518081 Rises=F Damp=T
 DIIS: error= 1.33D-02 at cycle   2 NSaved=   2.
 NSaved= 2 IEnMin= 2 EnMin= -79.5813545988207     IErMin= 2 ErrMin= 1.33D-02
 ErrMax= 1.33D-02 EMaxC= 1.00D-01 BMatC= 1.34D-02 BMatP= 5.61D-02
 IDIUse=3 WtCom= 8.67D-01 WtEn= 1.33D-01
 Coeff-Com: -0.785D+00 0.179D+01
 Coeff-En:   0.000D+00 0.100D+01
 Coeff:     -0.681D+00 0.168D+01
 Gap=     0.066 Goal=   None    Shift=    0.000
 RMSDP=3.22D-03 MaxDP=8.39D-02 DE=-2.60D-02 OVMax= 2.85D-01

 Cycle   3  Pass 1  IDiag  1:
 E= -79.5758453378369     Delta-E=        0.005509260984 Rises=F Damp=F
 DIIS: error= 3.90D-02 at cycle   3 NSaved=   3.
 NSaved= 3 IEnMin= 2 EnMin= -79.5813545988207     IErMin= 2 ErrMin= 1.33D-02
 ErrMax= 3.90D-02 EMaxC= 1.00D-01 BMatC= 2.91D-02 BMatP= 1.34D-02
 IDIUse=2 WtCom= 0.00D+00 WtEn= 1.00D+00
 Coeff-En:   0.000D+00 0.547D+00 0.453D+00
 Coeff:      0.000D+00 0.547D+00 0.453D+00
 Gap=     0.029 Goal=   None    Shift=    0.000
 RMSDP=7.93D-03 MaxDP=1.87D-01 DE= 5.51D-03 OVMax= 6.11D-01

 Cycle   4  Pass 1  IDiag  1:
 E= -79.3703459110860     Delta-E=        0.205499426751 Rises=F Damp=F
 DIIS: error= 5.84D-02 at cycle   4 NSaved=   4.
 NSaved= 4 IEnMin= 2 EnMin= -79.5813545988207     IErMin= 2 ErrMin= 1.33D-02
 ErrMax= 5.84D-02 EMaxC= 1.00D-01 BMatC= 1.24D-01 BMatP= 1.34D-02
 IDIUse=2 WtCom= 0.00D+00 WtEn= 1.00D+00
 Coeff-En:   0.000D+00 0.000D+00 0.721D+00 0.279D+00
 Coeff:      0.000D+00 0.000D+00 0.721D+00 0.279D+00
 Gap=     0.056 Goal=   None    Shift=    0.000
 RMSDP=3.92D-03 MaxDP=7.56D-02 DE= 2.05D-01 OVMax= 2.91D-01

 Cycle   5  Pass 1  IDiag  1:
 E= -79.5882623998233     Delta-E=       -0.217916488737 Rises=F Damp=F
 DIIS: error= 3.49D-02 at cycle   5 NSaved=   5.
 NSaved= 5 IEnMin= 5 EnMin= -79.5882623998233     IErMin= 2 ErrMin= 1.33D-02
 ErrMax= 3.49D-02 EMaxC= 1.00D-01 BMatC= 2.23D-02 BMatP= 1.34D-02
 IDIUse=2 WtCom= 0.00D+00 WtEn= 1.00D+00
 Coeff-En:   0.000D+00 0.000D+00 0.460D+00 0.000D+00 0.540D+00
 Coeff:      0.000D+00 0.000D+00 0.460D+00 0.000D+00 0.540D+00
 Gap=     0.061 Goal=   None    Shift=    0.000
 RMSDP=2.32D-03 MaxDP=5.94D-02 DE=-2.18D-01 OVMax= 1.81D-01

 Cycle   6  Pass 1  IDiag  1:
 E= -79.6260304288779     Delta-E=       -0.037768029055 Rises=F Damp=F
 DIIS: error= 2.69D-03 at cycle   6 NSaved=   6.
 NSaved= 6 IEnMin= 6 EnMin= -79.6260304288779     IErMin= 6 ErrMin= 2.69D-03
 ErrMax= 2.69D-03 EMaxC= 1.00D-01 BMatC= 1.87D-04 BMatP= 1.34D-02
 IDIUse=3 WtCom= 9.73D-01 WtEn= 2.69D-02
 Coeff-Com:  0.582D-01-0.904D-01 0.266D-01-0.772D-02 0.122D+00 0.891D+00
 Coeff-En:   0.000D+00 0.000D+00 0.000D+00 0.000D+00 0.162D-01 0.984D+00
 Coeff:      0.566D-01-0.879D-01 0.259D-01-0.751D-02 0.119D+00 0.894D+00
 Gap=     0.067 Goal=   None    Shift=    0.000
 RMSDP=2.62D-04 MaxDP=6.46D-03 DE=-3.78D-02 OVMax= 1.85D-02

 Cycle   7  Pass 1  IDiag  1:
 E= -79.6262674064481     Delta-E=       -0.000236977570 Rises=F Damp=F
 DIIS: error= 1.26D-03 at cycle   7 NSaved=   7.
 NSaved= 7 IEnMin= 7 EnMin= -79.6262674064481     IErMin= 7 ErrMin= 1.26D-03
 ErrMax= 1.26D-03 EMaxC= 1.00D-01 BMatC= 2.83D-05 BMatP= 1.87D-04
 IDIUse=3 WtCom= 9.87D-01 WtEn= 1.26D-02
 Coeff-Com:  0.127D-01-0.157D-01 0.438D-02 0.193D-03-0.367D-02 0.233D+00
 Coeff-Com:  0.769D+00
 Coeff-En:   0.000D+00 0.000D+00 0.000D+00 0.000D+00 0.000D+00 0.231D+00
 Coeff-En:   0.769D+00
 Coeff:      0.126D-01-0.155D-01 0.433D-02 0.191D-03-0.362D-02 0.233D+00
 Coeff:      0.769D+00
 Gap=     0.067 Goal=   None    Shift=    0.000
 RMSDP=6.82D-05 MaxDP=1.61D-03 DE=-2.37D-04 OVMax= 5.14D-03

 Cycle   8  Pass 1  IDiag  1:
 E= -79.6263131901286     Delta-E=       -0.000045783681 Rises=F Damp=F
 DIIS: error= 1.23D-04 at cycle   8 NSaved=   8.
 NSaved= 8 IEnMin= 8 EnMin= -79.6263131901286     IErMin= 8 ErrMin= 1.23D-04
 ErrMax= 1.23D-04 EMaxC= 1.00D-01 BMatC= 2.33D-07 BMatP= 2.83D-05
 IDIUse=3 WtCom= 9.99D-01 WtEn= 1.23D-03
 Coeff-Com:  0.765D-03-0.840D-03 0.112D-02 0.544D-03-0.499D-02 0.165D-02
 Coeff-Com:  0.643D-01 0.937D+00
 Coeff-En:   0.000D+00 0.000D+00 0.000D+00 0.000D+00 0.000D+00 0.000D+00
 Coeff-En:   0.000D+00 0.100D+01
 Coeff:      0.764D-03-0.839D-03 0.112D-02 0.543D-03-0.498D-02 0.165D-02
 Coeff:      0.642D-01 0.938D+00
 Gap=     0.067 Goal=   None    Shift=    0.000
 RMSDP=1.12D-05 MaxDP=2.56D-04 DE=-4.58D-05 OVMax= 8.70D-04

 Cycle   9  Pass 1  IDiag  1:
 E= -79.6263135001744     Delta-E=       -0.000000310046 Rises=F Damp=F
 DIIS: error= 6.37D-05 at cycle   9 NSaved=   9.
 NSaved= 9 IEnMin= 9 EnMin= -79.6263135001744     IErMin= 9 ErrMin= 6.37D-05
 ErrMax= 6.37D-05 EMaxC= 1.00D-01 BMatC= 6.53D-08 BMatP= 2.33D-07
 IDIUse=1 WtCom= 1.00D+00 WtEn= 0.00D+00
 Coeff-Com: -0.514D-03 0.705D-03-0.235D-03-0.256D-04 0.497D-03-0.314D-02
 Coeff-Com:  0.466D-02 0.112D+00 0.886D+00
 Coeff:     -0.514D-03 0.705D-03-0.235D-03-0.256D-04 0.497D-03-0.314D-02
 Coeff:      0.466D-02 0.112D+00 0.886D+00
 Gap=     0.067 Goal=   None    Shift=    0.000
 RMSDP=3.53D-06 MaxDP=8.16D-05 DE=-3.10D-07 OVMax= 2.77D-04

 Cycle  10  Pass 1  IDiag  1:
 E= -79.6263136113610     Delta-E=       -0.000000111187 Rises=F Damp=F
 DIIS: error= 2.91D-06 at cycle  10 NSaved=  10.
 NSaved=10 IEnMin=10 EnMin= -79.6263136113610     IErMin=10 ErrMin= 2.91D-06
 ErrMax= 2.91D-06 EMaxC= 1.00D-01 BMatC= 1.42D-10 BMatP= 6.53D-08
 IDIUse=1 WtCom= 1.00D+00 WtEn= 0.00D+00
 Coeff-Com: -0.189D-04 0.186D-04-0.171D-04-0.309D-05 0.568D-04-0.150D-03
 Coeff-Com: -0.423D-03-0.321D-03-0.845D-02 0.101D+01
 Coeff:     -0.189D-04 0.186D-04-0.171D-04-0.309D-05 0.568D-04-0.150D-03
 Coeff:     -0.423D-03-0.321D-03-0.845D-02 0.101D+01
 Gap=     0.067 Goal=   None    Shift=    0.000
 RMSDP=1.54D-07 MaxDP=3.55D-06 DE=-1.11D-07 OVMax= 1.18D-05

 Cycle  11  Pass 1  IDiag  1:
 E= -79.6263136115949     Delta-E=       -0.000000000234 Rises=F Damp=F
 DIIS: error= 3.11D-07 at cycle  11 NSaved=  11.
 NSaved=11 IEnMin=11 EnMin= -79.6263136115949     IErMin=11 ErrMin= 3.11D-07
 ErrMax= 3.11D-07 EMaxC= 1.00D-01 BMatC= 1.52D-12 BMatP= 1.42D-10
 IDIUse=1 WtCom= 1.00D+00 WtEn= 0.00D+00
 Coeff-Com:  0.133D-05-0.378D-05-0.765D-06-0.282D-06 0.774D-05 0.161D-05
 Coeff-Com: -0.153D-03-0.139D-02-0.167D-01 0.250D+00 0.768D+00
 Coeff:      0.133D-05-0.378D-05-0.765D-06-0.282D-06 0.774D-05 0.161D-05
 Coeff:     -0.153D-03-0.139D-02-0.167D-01 0.250D+00 0.768D+00
 Gap=     0.067 Goal=   None    Shift=    0.000
 RMSDP=1.48D-08 MaxDP=3.55D-07 DE=-2.34D-10 OVMax= 1.17D-06

 Cycle  12  Pass 1  IDiag  1:
 E= -79.6263136115970     Delta-E=       -0.000000000002 Rises=F Damp=F
 DIIS: error= 4.86D-08 at cycle  12 NSaved=  12.
 NSaved=12 IEnMin=12 EnMin= -79.6263136115970     IErMin=12 ErrMin= 4.86D-08
 ErrMax= 4.86D-08 EMaxC= 1.00D-01 BMatC= 4.01D-14 BMatP= 1.52D-12
 IDIUse=1 WtCom= 1.00D+00 WtEn= 0.00D+00
 Coeff-Com: -0.297D-06 0.552D-06 0.401D-06 0.645D-07-0.687D-06-0.650D-07
 Coeff-Com:  0.368D-05-0.344D-04-0.309D-03-0.215D-01-0.220D-02 0.102D+01
 Coeff:     -0.297D-06 0.552D-06 0.401D-06 0.645D-07-0.687D-06-0.650D-07
 Coeff:      0.368D-05-0.344D-04-0.309D-03-0.215D-01-0.220D-02 0.102D+01
 Gap=     0.067 Goal=   None    Shift=    0.000
 RMSDP=3.02D-09 MaxDP=6.83D-08 DE=-2.16D-12 OVMax= 2.28D-07

 SCF Done:  E(RB3LYP) =  -79.6263136116     A.U. after   12 cycles
             Convg  =    0.3018D-08             -V/T =  2.0172
 KE= 7.828013397222D+01 PE=-2.414313572149D+02 EE= 5.421225712240D+01
 Leave Link  502 at Thu May 27 13:49:42 2021, MaxMem=   13107200 cpu:      10.2
 (Enter /programs/64bit/g09/g09-gfortran/bin/l601.exe)
 Copying SCF densities to generalized density rwf, IOpCl= 0 IROHF=0.

 **********************************************************************

            Population analysis using the SCF density.

 **********************************************************************

 Alpha  occ. eigenvalues --  -10.23905 -10.23808  -0.67237  -0.66979  -0.40358
 Alpha  occ. eigenvalues --   -0.40196  -0.40017  -0.39850  -0.21709
 Alpha virt. eigenvalues --   -0.14991   0.01146   0.02923   0.05557   0.05579
 Alpha virt. eigenvalues --    0.07836   0.07855   0.10669   0.11846   0.16038
 Alpha virt. eigenvalues --    0.16407   0.18039   0.18434   0.22784   0.29545
 Alpha virt. eigenvalues --    0.63323   0.63504   0.64928   0.65012   0.65240
 Alpha virt. eigenvalues --    0.73294   0.88545   0.88775   0.89564   0.90847
 Alpha virt. eigenvalues --    0.91036   0.92887   0.97959   1.03731   1.40998
 Alpha virt. eigenvalues --    1.41037   1.41082   1.41153   1.73501   1.75055
 Alpha virt. eigenvalues --    1.98683   1.99340   2.00844   2.01197   2.01369
 Alpha virt. eigenvalues --    2.01568   2.25691   2.26249   2.26760   2.27331
 Alpha virt. eigenvalues --    2.52123   2.54708   2.70775   2.71242   2.72068
 Alpha virt. eigenvalues --    2.72560   3.05601   3.08107   3.29831   3.30813
 Alpha virt. eigenvalues --    3.32352   3.33346   4.24973   4.28768
          Condensed to atoms (all electrons):
              1          2          3          4          5          6
     1  C    5.256615   0.117927   0.368784   0.368967   0.369974  -0.003607
     2  C    0.117927   5.252895  -0.003668  -0.003431  -0.003571   0.368908
     3  H    0.368784  -0.003668   0.541945  -0.030993  -0.030984   0.000005
     4  H    0.368967  -0.003431  -0.030993   0.541269  -0.031837   0.000010
     5  H    0.369974  -0.003571  -0.030984  -0.031837   0.538169   0.000010
     6  H   -0.003607   0.368908   0.000005   0.000010   0.000010   0.540803
     7  H   -0.003555   0.369515   0.000010   0.000009   0.000005  -0.030518
     8  H   -0.003501   0.370134   0.000010   0.000005   0.000010  -0.031043
              7          8
     1  C   -0.003555  -0.003501
     2  C    0.369515   0.370134
     3  H    0.000010   0.000010
     4  H    0.000009   0.000005
     5  H    0.000005   0.000010
     6  H   -0.030518  -0.031043
     7  H    0.538975  -0.031415
     8  H   -0.031415   0.537005
 Mulliken atomic charges:
              1
     1  C   -0.471605
     2  C   -0.468710
     3  H    0.154891
     4  H    0.156000
     5  H    0.158223
     6  H    0.155433
     7  H    0.156973
     8  H    0.158794
 Sum of Mulliken atomic charges =  -0.00000
 Mulliken charges with hydrogens summed into heavy atoms:
              1
     1  C   -0.002490
     2  C    0.002490
 Sum of Mulliken charges with hydrogens summed into heavy atoms =  -0.00000
 Electronic spatial extent (au):  <R**2>=            512.0966
 Charge=             -0.0000 electrons
 Dipole moment (field-independent basis, Debye):
    X=              0.0046    Y=              0.0218    Z=              0.0301  Tot=              0.0374
 Quadrupole moment (field-independent basis, Debye-Ang):
   XX=            -15.7169   YY=            -15.7547   ZZ=            -10.9469
   XY=             -0.0120   XZ=              0.0434   YZ=              0.0449
 Traceless Quadrupole moment (field-independent basis, Debye-Ang):
   XX=             -1.5774   YY=             -1.6152   ZZ=              3.1926
   XY=             -0.0120   XZ=              0.0434   YZ=              0.0449
 Octapole moment (field-independent basis, Debye-Ang**2):
  XXX=             -0.0038  YYY=              0.1178  ZZZ=            -59.8579  XYY=              0.0169
  XXY=              0.0392  XXZ=            -28.4824  XZZ=              0.1115  YZZ=              0.1033
  YYZ=            -28.5332  XYZ=             -0.0316
 Hexadecapole moment (field-independent basis, Debye-Ang**3):
 XXXX=            -35.5497 YYYY=            -35.1201 ZZZZ=           -596.6483 XXXY=              0.0040
 XXXZ=             -3.2057 YYYX=             -0.0076 YYYZ=              0.2005 ZZZX=              0.8400
 ZZZY=              0.4671 XXYY=            -11.8170 XXZZ=           -114.6641 YYZZ=           -114.8546
 XXYZ=              0.0668 YYXZ=              3.6824 ZZXY=             -0.0918
 N-N= 2.931265250864D+01 E-N=-2.414313570424D+02  KE= 7.828013397222D+01
 No NMR shielding tensors so no spin-rotation constants.
 Leave Link  601 at Thu May 27 13:49:42 2021, MaxMem=   13107200 cpu:       0.1
 (Enter /programs/64bit/g09/g09-gfortran/bin/l701.exe)
 Compute integral first derivatives.
 ... and contract with generalized density number  0.
 Leave Link  701 at Thu May 27 13:49:42 2021, MaxMem=   13107200 cpu:       0.1
 (Enter /programs/64bit/g09/g09-gfortran/bin/l702.exe)
 L702 exits ... SP integral derivatives will be done elsewhere.
 Leave Link  702 at Thu May 27 13:49:42 2021, MaxMem=   13107200 cpu:       0.0
 (Enter /programs/64bit/g09/g09-gfortran/bin/l703.exe)
 Compute integral first derivatives, UseDBF=F ICtDFT=           0.
 Integral derivatives from FoFDir, PRISM(SPDF).
 Calling FoFJK, ICntrl=      2127 FMM=F ISym2X=0 I1Cent= 0 IOpClX= 0 NMat=1 NMatS=1 NMatT=0.
 FoFCou: FMM=F IPFlag=           0 FMFlag=      100000 FMFlg1=         800
         NFxFlg=           0 DoJE=F BraDBF=F KetDBF=F FulRan=T
         Omega=  0.000000  0.000000  1.000000  0.000000  0.000000 ICntrl=    2127 IOpCl=  0
         NMat0=    1 NMatS0=    1 NMatT0=    0 NMatD0=    1 NMtDS0=    0 NMtDT0=    0
         I1Cent=           0 NGrid=           0.
 Symmetry not used in FoFCou.
 Leave Link  703 at Thu May 27 13:49:44 2021, MaxMem=   13107200 cpu:       1.6
 (Enter /programs/64bit/g09/g09-gfortran/bin/l716.exe)
 Dipole        = 1.82462054D-03 8.55828091D-03 1.18496178D-02
 -------------------------------------------------------------------
 Center     Atomic                   Forces (Hartrees/Bohr)
 Number     Number              X              Y              Z
 -------------------------------------------------------------------
      1        6           0.008329989   -0.005228457   -0.047300271
      2        6          -0.008378755   -0.006114338    0.045933203
      3        1          -0.027114529    0.000129758    0.024411618
      4        1           0.010825440    0.018081075    0.023470912
      5        1           0.008007951   -0.012932958    0.020892895
      6        1           0.027284252   -0.000194375   -0.024186780
      7        1          -0.011396313    0.019043602   -0.022696719
      8        1          -0.007558035   -0.012784307   -0.020524859
 -------------------------------------------------------------------
 Cartesian Forces:  Max     0.047300271 RMS     0.020940897
 -----------------------------------------------------------------------------------------------
                       Internal Coordinate Forces (Hartree/Bohr or radian)
  Cent   Atom   N1       Length/X         N2         Alpha/Y        N3         Beta/Z          J
 -----------------------------------------------------------------------------------------------
      1  C 
      2  C        1  -0.021475(     1)
      3  H        1  -0.033585(     2)      2  -0.030985(     8)
      4  H        1  -0.027828(     3)      2  -0.031954(     9)      3  -0.000677(    14)     0
      5  H        1  -0.021178(     4)      2  -0.031492(    10)      3   0.000943(    15)     0
      6  H        2  -0.033673(     5)      1  -0.030398(    11)      3  -0.000000(    16)     0
      7  H        2  -0.028371(     6)      1  -0.030645(    12)      6  -0.000708(    17)     0
      8  H        2  -0.020724(     7)      1  -0.030966(    13)      6   0.000308(    18)     0
 -----------------------------------------------------------------------------------------------
 Internal  Forces:  Max     0.033672514 RMS     0.024695025
 Force constants in Cartesian coordinates: 
                1             2             3             4             5 
      1  0.516429D+00
      2 -0.513506D-02  0.528102D+00
      3  0.654120D-02 -0.283382D-03  0.293404D+00
      4 -0.218409D-01 -0.694410D-04  0.133714D-03  0.518962D+00
      5 -0.692229D-04 -0.220247D-01 -0.154794D-03  0.463622D-02  0.531897D+00
      6  0.165033D-03  0.115757D-03 -0.898677D-02  0.493862D-02  0.352774D-02
      7 -0.255929D+00 -0.558129D-04  0.671905D-01  0.349962D-02  0.000000D+00
      8 -0.519182D-03 -0.710047D-01  0.391653D-05 -0.894566D-05  0.310182D-03
      9  0.894584D-01 -0.162081D-03 -0.916124D-01  0.101629D-01 -0.151538D-05
     10 -0.120041D+00 -0.828434D-01 -0.368087D-01  0.116218D-02  0.147787D-02
     11 -0.822625D-01 -0.214779D+00 -0.631276D-01  0.147352D-02  0.286129D-02
     12 -0.477703D-01 -0.825371D-01 -0.965403D-01 -0.510230D-02 -0.883781D-02
     13 -0.124347D+00  0.880849D-01 -0.370567D-01  0.113127D-02 -0.142527D-02
     14  0.879674D-01 -0.226075D+00  0.635619D-01 -0.141224D-02  0.275338D-02
     15 -0.482294D-01  0.829826D-01 -0.962650D-01 -0.519435D-02  0.899412D-02
     16  0.349995D-02  0.000000D+00  0.000000D+00 -0.256172D+00 -0.212627D-04
     17  0.000000D+00  0.308443D-03  0.000000D+00  0.328102D-03 -0.718399D-01
     18  0.101639D-01  0.000000D+00  0.000000D+00  0.892438D-01 -0.617661D-04
     19  0.110762D-02 -0.141103D-02  0.000000D+00 -0.121267D+00  0.836970D-01
     20 -0.140069D-02  0.271917D-02  0.000000D+00  0.830872D-01 -0.216942D+00
     21 -0.513095D-02  0.888741D-02  0.000000D+00 -0.461263D-01  0.796768D-01
     22  0.112150D-02  0.142978D-02  0.000000D+00 -0.125476D+00 -0.882949D-01
     23  0.141932D-02  0.275441D-02  0.000000D+00 -0.880344D-01 -0.227015D+00
     24 -0.519796D-02 -0.900327D-02  0.000000D+00 -0.480561D-01 -0.831427D-01
                6             7             8             9            10 
      6  0.289143D+00
      7  0.000000D+00  0.261744D+00
      8  0.000000D+00  0.864882D-04  0.529950D-01
      9  0.000000D+00 -0.725717D-01  0.251162D-03  0.759853D-01
     10  0.000000D+00 -0.470196D-02 -0.248914D-01 -0.136545D-01  0.107848D+00
     11  0.000000D+00  0.157317D-02  0.862412D-02  0.456850D-02  0.928024D-01
     12  0.000000D+00  0.271594D-02  0.136735D-01  0.788711D-02  0.394413D-01
     13  0.000000D+00 -0.461263D-02  0.253269D-01 -0.133951D-01  0.157266D-01
     14  0.000000D+00 -0.160332D-02  0.908419D-02 -0.465607D-02  0.134623D-01
     15  0.000000D+00  0.266529D-02 -0.139286D-01  0.774002D-02  0.110219D-01
     16  0.674227D-01  0.000000D+00  0.000000D+00  0.000000D+00  0.000000D+00
     17 -0.181738D-03  0.000000D+00  0.544488D-03  0.000000D+00  0.479279D-03
     18 -0.911069D-01  0.000000D+00  0.000000D+00  0.000000D+00  0.000000D+00
     19 -0.353688D-01  0.000000D+00 -0.476090D-03  0.000000D+00 -0.419073D-03
     20  0.606239D-01  0.000000D+00 -0.274871D-03  0.000000D+00 -0.241952D-03
     21 -0.931235D-01  0.000000D+00  0.000000D+00  0.000000D+00  0.000000D+00
     22 -0.371576D-01  0.000000D+00  0.482283D-03  0.000000D+00  0.424524D-03
     23 -0.640856D-01  0.000000D+00 -0.278447D-03  0.000000D+00 -0.245099D-03
     24 -0.959263D-01  0.000000D+00  0.000000D+00  0.000000D+00  0.000000D+00
               11            12            13            14            15 
     11  0.215009D+00
     12  0.683102D-01  0.805934D-01
     13 -0.135834D-01  0.107153D-01  0.112108D+00
     14 -0.117196D-01  0.939124D-02 -0.984109D-01  0.225953D+00
     15 -0.975106D-02  0.805978D-02  0.397365D-01 -0.682971D-01  0.804652D-01
     16  0.000000D+00  0.000000D+00  0.000000D+00  0.000000D+00  0.000000D+00
     17 -0.276712D-03  0.000000D+00 -0.481877D-03 -0.278212D-03  0.000000D+00
     18  0.000000D+00  0.000000D+00  0.000000D+00  0.000000D+00  0.000000D+00
     19  0.241952D-03  0.000000D+00  0.421344D-03  0.243263D-03  0.000000D+00
     20  0.139691D-03  0.000000D+00  0.243263D-03  0.140448D-03  0.000000D+00
     21  0.000000D+00  0.000000D+00  0.000000D+00  0.000000D+00  0.000000D+00
     22 -0.245099D-03  0.000000D+00 -0.426825D-03 -0.246427D-03  0.000000D+00
     23  0.141508D-03  0.000000D+00  0.246427D-03  0.142275D-03  0.000000D+00
     24  0.000000D+00  0.000000D+00  0.000000D+00  0.000000D+00  0.000000D+00
               16            17            18            19            20 
     16  0.261851D+00
     17  0.000000D+00  0.534670D-01
     18 -0.727513D-01  0.126497D-05  0.756324D-01
     19 -0.455972D-02  0.250301D-01 -0.132415D-01  0.108610D+00
     20 -0.158000D-02  0.897923D-02 -0.458834D-02 -0.937165D-01  0.216826D+00
     21  0.264713D-02 -0.137617D-01  0.768729D-02  0.377723D-01 -0.654190D-01
     22 -0.461944D-02 -0.253561D-01 -0.134149D-01  0.161069D-01  0.136087D-01
     23  0.160080D-02  0.909565D-02  0.464873D-02 -0.136087D-01 -0.115881D-01
     24  0.268153D-02  0.139422D-01  0.778718D-02  0.108379D-01  0.938348D-02
               21            22            23            24 
     21  0.775740D-01
     22  0.108379D-01  0.112869D+00
     23 -0.938343D-02  0.986217D-01  0.226748D+00
     24  0.786220D-02  0.397346D-01  0.688203D-01  0.802769D-01
 Force constants in internal coordinates: 
                1             2             3             4             5 
      1  0.898677D-02
      2  0.000000D+00  0.286734D+00
      3  0.000000D+00  0.000000D+00  0.297299D+00
      4  0.000000D+00  0.000000D+00  0.000000D+00  0.309927D+00
      5  0.000000D+00  0.000000D+00  0.000000D+00  0.000000D+00  0.286903D+00
      6  0.000000D+00  0.000000D+00  0.000000D+00  0.000000D+00  0.000000D+00
      7  0.000000D+00  0.000000D+00  0.000000D+00  0.000000D+00  0.000000D+00
      8  0.000000D+00  0.000000D+00  0.000000D+00  0.000000D+00  0.000000D+00
      9  0.000000D+00  0.000000D+00  0.000000D+00  0.000000D+00  0.000000D+00
     10  0.000000D+00  0.000000D+00  0.000000D+00  0.000000D+00  0.000000D+00
     11  0.000000D+00  0.000000D+00  0.000000D+00  0.000000D+00  0.000000D+00
     12  0.000000D+00  0.000000D+00  0.000000D+00  0.000000D+00  0.000000D+00
     13  0.000000D+00  0.000000D+00  0.000000D+00  0.000000D+00  0.000000D+00
     14  0.000000D+00  0.000000D+00  0.000000D+00  0.000000D+00  0.000000D+00
     15  0.000000D+00  0.000000D+00  0.000000D+00  0.000000D+00  0.000000D+00
     16  0.000000D+00  0.000000D+00  0.000000D+00  0.000000D+00  0.000000D+00
     17  0.000000D+00  0.000000D+00  0.000000D+00  0.000000D+00  0.000000D+00
     18  0.000000D+00  0.000000D+00  0.000000D+00  0.000000D+00  0.000000D+00
                6             7             8             9            10 
      6  0.296946D+00
      7  0.000000D+00  0.311052D+00
      8  0.000000D+00  0.000000D+00  0.240994D+00
      9  0.000000D+00  0.000000D+00  0.415298D-01  0.240283D+00
     10  0.000000D+00  0.000000D+00  0.400376D-01  0.415287D-01  0.240998D+00
     11  0.000000D+00  0.000000D+00  0.000000D+00  0.000000D+00  0.000000D+00
     12  0.000000D+00  0.000000D+00  0.000000D+00  0.000000D+00  0.000000D+00
     13  0.000000D+00  0.000000D+00  0.000000D+00  0.000000D+00  0.000000D+00
     14  0.000000D+00  0.000000D+00 -0.656019D-01  0.933136D-05  0.656115D-01
     15  0.000000D+00  0.000000D+00  0.644118D-01 -0.643757D-01 -0.119592D-02
     16  0.000000D+00  0.000000D+00  0.000000D+00  0.000000D+00  0.000000D+00
     17  0.000000D+00  0.000000D+00  0.000000D+00  0.000000D+00  0.000000D+00
     18  0.000000D+00  0.000000D+00  0.000000D+00  0.000000D+00  0.000000D+00
               11            12            13            14            15 
     11  0.238955D+00
     12  0.402349D-01  0.238957D+00
     13  0.402344D-01  0.402338D-01  0.238960D+00
     14  0.000000D+00  0.000000D+00  0.000000D+00  0.221935D+00
     15  0.000000D+00  0.000000D+00  0.000000D+00 -0.107527D+00  0.223892D+00
     16  0.000000D+00  0.000000D+00  0.000000D+00  0.690000D-02  0.690000D-02
     17 -0.643922D-01  0.102283D-04  0.644039D-01  0.230000D-02  0.230000D-02
     18  0.643985D-01 -0.644034D-01 -0.426275D-05  0.230000D-02  0.230000D-02
               16            17            18 
     16  0.207000D-01
     17  0.690025D-02  0.225814D+00
     18  0.689730D-02 -0.109457D+00  0.225812D+00
 Leave Link  716 at Thu May 27 13:49:44 2021, MaxMem=   13107200 cpu:       0.0
 (Enter /programs/64bit/g09/g09-gfortran/bin/l103.exe)

 GradGradGradGradGradGradGradGradGradGradGradGradGradGradGradGradGradGrad
 Berny optimization.
 Search for a local minimum.
 Step number   1 out of a maximum of    2
 All quantities printed in internal units (Hartrees-Bohrs-Radians)
 Second derivative matrix not updated -- first step.
 The second derivative matrix:
                          d1        a1        t1        d2        a2
           d1           0.00899
           a1           0.00000   0.24099
           t1          -0.00000  -0.06560   0.22193
           d2           0.00000  -0.00000   0.00000   0.28673
           a2          -0.00000   0.04153   0.00001  -0.00000   0.24028
           t2          -0.00000   0.06441  -0.10753  -0.00000  -0.06438
           d3           0.00000  -0.00000  -0.00000   0.00000   0.00000
           d4           0.00000  -0.00000  -0.00000  -0.00000  -0.00000
           a3          -0.00000   0.04004   0.06561  -0.00000   0.04153
           d5          -0.00000   0.00000   0.00000   0.00000   0.00000
           a4          -0.00000   0.00000   0.00000   0.00000  -0.00000
           t3           0.00000   0.00000   0.00690   0.00000  -0.00000
           d6           0.00000   0.00000  -0.00000   0.00000  -0.00000
           a5           0.00000   0.00000   0.00000   0.00000   0.00000
           t4           0.00000   0.00000   0.00230   0.00000  -0.00000
           d7          -0.00000   0.00000  -0.00000   0.00000  -0.00000
           a6          -0.00000   0.00000   0.00000   0.00000   0.00000
           t5          -0.00000   0.00000   0.00230   0.00000  -0.00000
                          t2        d3        d4        a3        d5
           t2           0.22389
           d3           0.00000   0.29730
           d4           0.00000  -0.00000   0.30993
           a3          -0.00120  -0.00000  -0.00000   0.24100
           d5           0.00000  -0.00000  -0.00000   0.00000   0.28690
           a4           0.00000   0.00000   0.00000  -0.00000  -0.00000
           t3           0.00690  -0.00000   0.00000  -0.00000   0.00000
           d6          -0.00000   0.00000   0.00000  -0.00000   0.00000
           a5          -0.00000  -0.00000   0.00000   0.00000   0.00000
           t4           0.00230   0.00000   0.00000  -0.00000   0.00000
           d7          -0.00000   0.00000  -0.00000   0.00000   0.00000
           a6           0.00000  -0.00000  -0.00000   0.00000   0.00000
           t5           0.00230   0.00000  -0.00000   0.00000  -0.00000
                          a4        t3        d6        a5        t4
           a4           0.23895
           t3           0.00000   0.02070
           d6          -0.00000   0.00000   0.29695
           a5           0.04023  -0.00000   0.00000   0.23896
           t4          -0.06439   0.00690   0.00000   0.00001   0.22581
           d7           0.00000   0.00000   0.00000   0.00000   0.00000
           a6           0.04023   0.00000   0.00000   0.04023   0.06440
           t5           0.06440   0.00690   0.00000  -0.06440  -0.10946
                          d7        a6        t5
           d7           0.31105
           a6          -0.00000   0.23896
           t5           0.00000  -0.00000   0.22581
     Eigenvalues --- 1000.000001000.000001000.000001000.000001000.00000
     Eigenvalues --- 1000.000001000.000001000.000001000.000001000.00000
     Eigenvalues --- 1000.000001000.000001000.000001000.000001000.00000
     Eigenvalues --- 1000.000001000.000001000.00000
 Angle between quadratic step and forces=  90.00 degrees.
 Linear search not attempted -- first point.
 Variable       Old X    -DE/DX   Delta X   Delta X   Delta X     New X
                                 (Linear)    (Quad)   (Total)
    d1        6.86350  -0.02148   0.00000   0.00000   0.00000   6.86350
    a1        1.90243  -0.03099   0.00000   0.00000   0.00000   1.90243
    t1        2.09440  -0.00068   0.00000   0.00000   0.00000   2.09440
    d2        2.17389  -0.03359   0.00000   0.00000   0.00000   2.17389
    a2        1.91988  -0.03195   0.00000   0.00000   0.00000   1.91988
    t2       -2.09440   0.00094   0.00000   0.00000   0.00000  -2.09440
    d3        2.15205  -0.02783   0.00000   0.00000   0.00000   2.15205
    d4        2.12727  -0.02118   0.00000   0.00000   0.00000   2.12727
    a3        1.90243  -0.03149   0.00000   0.00000   0.00000   1.90243
    d5        2.17354  -0.03367   0.00000   0.00000   0.00000   2.17354
    a4        1.90243  -0.03040   0.00000   0.00000   0.00000   1.90243
    t3        3.14159  -0.00000   0.00000   0.00000   0.00000   3.14159
    d6        2.15277  -0.02837   0.00000   0.00000   0.00000   2.15277
    a5        1.90243  -0.03064   0.00000   0.00000   0.00000   1.90243
    t4        2.09440  -0.00071   0.00000   0.00000   0.00000   2.09440
    d7        2.12512  -0.02072   0.00000   0.00000   0.00000   2.12512
    a6        1.90243  -0.03097   0.00000   0.00000   0.00000   1.90243
    t5       -2.09440   0.00031   0.00000   0.00000   0.00000  -2.09440
         Item               Value     Threshold  Converged?
 Maximum Force            0.000000     0.000450     YES
 RMS     Force            0.000000     0.000300     YES
 Maximum Displacement     0.000000     0.001800     YES
 RMS     Displacement     0.000000     0.001200     YES
 Predicted change in Energy=-0.000000D+00
 Optimization completed.
    -- Stationary point found.
                       ----------------------------
                       !   Optimized Parameters   !
                       ! (Angstroms and Degrees)  !
 ----------------------                            ----------------------
 !      Name          Value   Derivative information (Atomic Units)     !
 ------------------------------------------------------------------------
 !       d1          3.632    -DE/DX =   -0.0215                        !
 !       a1        109.0012   -DE/DX =   -0.031                         !
 !       t1        120.0      -DE/DX =   -0.0007                        !
 !       d2          1.1504   -DE/DX =   -0.0336                        !
 !       a2        110.0011   -DE/DX =   -0.032                         !
 !       t2       -120.0      -DE/DX =    0.0009                        !
 !       d3          1.1388   -DE/DX =   -0.0278                        !
 !       d4          1.1257   -DE/DX =   -0.0212                        !
 !       a3        109.0012   -DE/DX =   -0.0315                        !
 !       d5          1.1502   -DE/DX =   -0.0337                        !
 !       a4        109.0012   -DE/DX =   -0.0304                        !
 !       t3        180.0      -DE/DX =    0.0                           !
 !       d6          1.1392   -DE/DX =   -0.0284                        !
 !       a5        109.0012   -DE/DX =   -0.0306                        !
 !       t4        120.0      -DE/DX =   -0.0007                        !
 !       d7          1.1246   -DE/DX =   -0.0207                        !
 !       a6        109.0012   -DE/DX =   -0.031                         !
 !       t5       -120.0      -DE/DX =    0.0003                        !
 ------------------------------------------------------------------------
 GradGradGradGradGradGradGradGradGradGradGradGradGradGradGradGradGradGrad

 Leave Link  103 at Thu May 27 13:49:44 2021, MaxMem=   13107200 cpu:       0.0
 (Enter /programs/64bit/g09/g09-gfortran/bin/l9999.exe)
 1\1\GINC-MOLMOD\Force\RB3LYP\6-31+G(d,p)\C2H6\OSPITE\27-May-2021\1\\#p
  b3lyp/6-31+g(d,p) force nosym\\c2h6 molecule\\0,1\C\C,1,d1\H,1,d2,2,a
 1\H,1,d3,2,a2,3,t1,0\H,1,d4,2,a3,3,t2,0\H,2,d5,1,a4,3,t3,0\H,2,d6,1,a5
 ,6,t4,0\H,2,d7,1,a6,6,t5,0\\d1=3.63200776\a1=109.0012322\t1=120.000033
 16\d2=1.15037543\a2=110.00106465\t2=-120.00000349\d3=1.13881703\d4=1.1
 2570025\a3=109.00116588\d5=1.15018645\a4=109.00123569\t3=179.99999825\
 d6=1.13919498\a5=109.00116239\t4=120.00002967\d7=1.12456641\a6=109.001
 16763\t5=-120.0000192\\Version=EM64L-G09RevA.02\HF=-79.6263136\RMSD=3.
 018e-09\RMSF=2.094e-02\Dipole=0.0018246,0.0085583,0.0118496\Quadrupole
 =-1.1727464,-1.2008575,2.3736039,-0.008913,0.0322673,0.0333504\PG=C01 
 [X(C2H6)]\\@


 THERE IS SOMETHING FASCINATING ABOUT SCIENCE.
 ONE GETS SUCH WHOLESALE CONJECTURE OUT OF SUCH TRIFLING INVESTMENTS.

                                                       -- MARK TWAIN
 Job cpu time:  0 days  0 hours  0 minutes 13.3 seconds.
 File lengths (MBytes):  RWF=      5 Int=      0 D2E=      0 Chk=      1 Scr=      1
 Normal termination of Gaussian 09 at Thu May 27 13:49:44 2021.
