 Entering Gaussian System, Link 0=g09
 Input=c2h6_022.com
 Output=c2h6_022.log
 Initial command:
 /programs/64bit/g09/g09-gfortran/bin/l1.exe /data/scratch/Gau-17434.inp -scrdir=/data/scratch/
 Entering Link 1 = /programs/64bit/g09/g09-gfortran/bin/l1.exe PID=     17435.
  
 Copyright (c) 1988,1990,1992,1993,1995,1998,2003,2009, Gaussian, Inc.
                  All Rights Reserved.
  
 This is part of the Gaussian(R) 09 program.  It is based on
 the Gaussian(R) 03 system (copyright 2003, Gaussian, Inc.),
 the Gaussian(R) 98 system (copyright 1998, Gaussian, Inc.),
 the Gaussian(R) 94 system (copyright 1995, Gaussian, Inc.),
 the Gaussian 92(TM) system (copyright 1992, Gaussian, Inc.),
 the Gaussian 90(TM) system (copyright 1990, Gaussian, Inc.),
 the Gaussian 88(TM) system (copyright 1988, Gaussian, Inc.),
 the Gaussian 86(TM) system (copyright 1986, Carnegie Mellon
 University), and the Gaussian 82(TM) system (copyright 1983,
 Carnegie Mellon University). Gaussian is a federally registered
 trademark of Gaussian, Inc.
  
 This software contains proprietary and confidential information,
 including trade secrets, belonging to Gaussian, Inc.
  
 This software is provided under written license and may be
 used, copied, transmitted, or stored only in accord with that
 written license.
  
 The following legend is applicable only to US Government
 contracts under FAR:
  
                    RESTRICTED RIGHTS LEGEND
  
 Use, reproduction and disclosure by the US Government is
 subject to restrictions as set forth in subparagraphs (a)
 and (c) of the Commercial Computer Software - Restricted
 Rights clause in FAR 52.227-19.
  
 Gaussian, Inc.
 340 Quinnipiac St., Bldg. 40, Wallingford CT 06492
  
  
 ---------------------------------------------------------------
 Warning -- This program may not be used in any manner that
 competes with the business of Gaussian, Inc. or will provide
 assistance to any competitor of Gaussian, Inc.  The licensee
 of this program is prohibited from giving any competitor of
 Gaussian, Inc. access to this program.  By using this program,
 the user acknowledges that Gaussian, Inc. is engaged in the
 business of creating and licensing software in the field of
 computational chemistry and represents and warrants to the
 licensee that it is not a competitor of Gaussian, Inc. and that
 it will not use this program in any manner prohibited above.
 ---------------------------------------------------------------
  

 Cite this work as:
 Gaussian 09, Revision A.02,
 M. J. Frisch, G. W. Trucks, H. B. Schlegel, G. E. Scuseria, 
 M. A. Robb, J. R. Cheeseman, G. Scalmani, V. Barone, B. Mennucci, 
 G. A. Petersson, H. Nakatsuji, M. Caricato, X. Li, H. P. Hratchian, 
 A. F. Izmaylov, J. Bloino, G. Zheng, J. L. Sonnenberg, M. Hada, 
 M. Ehara, K. Toyota, R. Fukuda, J. Hasegawa, M. Ishida, T. Nakajima, 
 Y. Honda, O. Kitao, H. Nakai, T. Vreven, J. A. Montgomery, Jr., 
 J. E. Peralta, F. Ogliaro, M. Bearpark, J. J. Heyd, E. Brothers, 
 K. N. Kudin, V. N. Staroverov, R. Kobayashi, J. Normand, 
 K. Raghavachari, A. Rendell, J. C. Burant, S. S. Iyengar, J. Tomasi, 
 M. Cossi, N. Rega, J. M. Millam, M. Klene, J. E. Knox, J. B. Cross, 
 V. Bakken, C. Adamo, J. Jaramillo, R. Gomperts, R. E. Stratmann, 
 O. Yazyev, A. J. Austin, R. Cammi, C. Pomelli, J. W. Ochterski, 
 R. L. Martin, K. Morokuma, V. G. Zakrzewski, G. A. Voth, 
 P. Salvador, J. J. Dannenberg, S. Dapprich, A. D. Daniels, 
 O. Farkas, J. B. Foresman, J. V. Ortiz, J. Cioslowski, 
 and D. J. Fox, Gaussian, Inc., Wallingford CT, 2009.
 
 ******************************************
 Gaussian 09:  EM64L-G09RevA.02 11-Jun-2009
                27-May-2021 
 ******************************************
 %chk=c2h6_022.chk
 %mem=100MB
 --------------------------------
 #p b3lyp/6-31+g(d,p) force nosym
 --------------------------------
 1/10=7,30=1,38=1/1,3;
 2/12=2,15=1,17=6,18=5,40=1/2;
 3/5=1,6=6,7=111,11=2,16=1,25=1,30=1,71=1,74=-5/1,2,3;
 4//1;
 5/5=2,38=5/2;
 6/7=2,8=2,9=2,10=2,28=1/1;
 7/29=1,30=1/1,2,3,16;
 1/10=7,30=1/3;
 99//99;
 Leave Link    1 at Thu May 27 13:53:44 2021, MaxMem=   13107200 cpu:       0.0
 (Enter /programs/64bit/g09/g09-gfortran/bin/l101.exe)
 -------------
 c2h6 molecule
 -------------
 Symbolic Z-matrix:
 Charge =  0 Multiplicity = 1
 C1
 C2                   1    d1
 H3                   1    d2       2    a1
 H4                   1    d3       2    a2       3    t1       0
 H5                   1    d4       2    a3       3    t2       0
 H6                   2    d5       1    a4       3    t3       0
 H7                   2    d6       1    a5       6    t4       0
 H8                   2    d7       1    a6       6    t5       0
       Variables:
       Constants:
  d1                    1.54753                  
  a1                  109.01634                  
  t1                  120.00003                  
  d2                    1.09497                  
  a2                  110.01627                  
  t2                 -120.00021                  
  d3                    1.09421                  
  d4                    1.094                    
  a3                  109.01625                  
  d5                    1.09464                  
  a4                  109.01608                  
  t3                  180.                       
  d6                    1.09382                  
  a5                  109.01602                  
  t4                  120.00002                  
  d7                    1.09354                  
  a6                  109.01599                  
  t5                 -120.00002                  
 
 NAtoms=      8 NQM=      8 NQMF=      0 NMic=      0 NMicF=      0 NTot=      8.
                    Isotopes and Nuclear Properties:
 (Nuclear quadrupole moments (NQMom) in fm**2, nuclear magnetic moments (NMagM)
  in nuclear magnetons)

  Atom         1           2           3           4           5           6           7           8
 IAtWgt=          12          12           1           1           1           1           1           1
 AtmWgt=  12.0000000  12.0000000   1.0078250   1.0078250   1.0078250   1.0078250   1.0078250   1.0078250
 NucSpn=           0           0           1           1           1           1           1           1
 AtZEff=   0.0000000   0.0000000   0.0000000   0.0000000   0.0000000   0.0000000   0.0000000   0.0000000
 NQMom=    0.0000000   0.0000000   0.0000000   0.0000000   0.0000000   0.0000000   0.0000000   0.0000000
 NMagM=    0.0000000   0.0000000   2.7928460   2.7928460   2.7928460   2.7928460   2.7928460   2.7928460
 Leave Link  101 at Thu May 27 13:53:44 2021, MaxMem=   13107200 cpu:       0.0
 (Enter /programs/64bit/g09/g09-gfortran/bin/l103.exe)

 GradGradGradGradGradGradGradGradGradGradGradGradGradGradGradGradGradGrad
 Berny optimization.
 Initialization pass.
                       ----------------------------
                       !    Initial Parameters    !
                       ! (Angstroms and Degrees)  !
 ----------------------                            ----------------------
 !      Name          Value   Derivative information (Atomic Units)     !
 ------------------------------------------------------------------------
 !       d1          1.5475   Frozen                                    !
 !       a1        109.0163   Frozen                                    !
 !       t1        120.0      Frozen                                    !
 !       d2          1.095    Frozen                                    !
 !       a2        110.0163   Frozen                                    !
 !       t2       -120.0002   Frozen                                    !
 !       d3          1.0942   Frozen                                    !
 !       d4          1.094    Frozen                                    !
 !       a3        109.0162   Frozen                                    !
 !       d5          1.0946   Frozen                                    !
 !       a4        109.0161   Frozen                                    !
 !       t3        180.0      Frozen                                    !
 !       d6          1.0938   Frozen                                    !
 !       a5        109.016    Frozen                                    !
 !       t4        120.0      Frozen                                    !
 !       d7          1.0935   Frozen                                    !
 !       a6        109.016    Frozen                                    !
 !       t5       -120.0      Frozen                                    !
 ------------------------------------------------------------------------
 Trust Radius=3.00D-01 FncErr=1.00D-07 GrdErr=1.00D-07
 Number of steps in this run=   2 maximum allowed number of steps=   2.
 GradGradGradGradGradGradGradGradGradGradGradGradGradGradGradGradGradGrad

 Leave Link  103 at Thu May 27 13:53:44 2021, MaxMem=   13107200 cpu:       0.0
 (Enter /programs/64bit/g09/g09-gfortran/bin/l202.exe)
                          Input orientation:                          
 ---------------------------------------------------------------------
 Center     Atomic      Atomic             Coordinates (Angstroms)
 Number     Number       Type             X           Y           Z
 ---------------------------------------------------------------------
      1          6           0        0.000000    0.000000    0.000000
      2          6           0        0.000000    0.000000    1.547535
      3          1           0        1.035215    0.000000   -0.356783
      4          1           0       -0.514056   -0.890370   -0.374532
      5          1           0       -0.517153    0.895729   -0.356466
      6          1           0       -1.034903    0.000000    1.904205
      7          1           0        0.517063   -0.895578    1.903936
      8          1           0        0.516931    0.895351    1.903845
 ---------------------------------------------------------------------
                    Distance matrix (angstroms):
                    1          2          3          4          5
     1  C    0.000000
     2  C    1.547535   0.000000
     3  H    1.094972   2.167509   0.000000
     4  H    1.094206   2.179760   1.786984   0.000000
     5  H    1.094004   2.166794   1.792255   1.786192   0.000000
     6  H    2.167261   1.094640   3.065527   2.501337   2.486168
     7  H    2.166653   1.093817   2.486241   2.500930   3.063952
     8  H    2.166448   1.093539   2.486104   3.072904   2.485626
                    6          7          8
     6  H    0.000000
     7  H    1.791831   0.000000
     8  H    1.791603   1.790929   0.000000
 Symmetry turned off by external request.
 Stoichiometry    C2H6
 Framework group  C1[X(C2H6)]
 Deg. of freedom    18
 Full point group                 C1      NOp   1
 Rotational constants (GHZ):     78.2574626     19.9304766     19.9183036
 Leave Link  202 at Thu May 27 13:53:44 2021, MaxMem=   13107200 cpu:       0.0
 (Enter /programs/64bit/g09/g09-gfortran/bin/l301.exe)
 Standard basis: 6-31+G(d,p) (6D, 7F)
 Ernie: Thresh=  0.10000D-02 Tol=  0.10000D-05 Strict=F.
 Integral buffers will be    131072 words long.
 Raffenetti 2 integral format.
 Two-electron integral symmetry is turned off.
    68 basis functions,   106 primitive gaussians,    68 cartesian basis functions
     9 alpha electrons        9 beta electrons
       nuclear repulsion energy        42.0692566353 Hartrees.
 IExCor=  402 DFT=T Ex+Corr=B3LYP ExCW=0 ScaHFX=  0.200000
 ScaDFX=  0.800000  0.720000  1.000000  0.810000 ScalE2=  1.000000  1.000000
 IRadAn=      0 IRanWt=     -1 IRanGd=            0 ICorTp=0
 NAtoms=    8 NActive=    8 NUniq=    8 SFac= 7.50D-01 NAtFMM=   80 NAOKFM=F Big=F
 Leave Link  301 at Thu May 27 13:53:44 2021, MaxMem=   13107200 cpu:       0.0
 (Enter /programs/64bit/g09/g09-gfortran/bin/l302.exe)
 NPDir=0 NMtPBC=     1 NCelOv=     1 NCel=       1 NClECP=     1 NCelD=      1
         NCelK=      1 NCelE2=     1 NClLst=     1 CellRange=     0.0.
 One-electron integrals computed using PRISM.
 NBasis=    68 RedAO= T  NBF=    68
 NBsUse=    68 1.00D-06 NBFU=    68
 Precomputing XC quadrature grid using
 IXCGrd= 2 IRadAn=           0 IRanWt=          -1 IRanGd=           0 AccXCQ= 1.00D-10.
 NRdTot=     510 NPtTot=       65100 NUsed=       68787 NTot=       68819
 NSgBfM=    68    68    68    68    68 NAtAll=     8     8.
 Leave Link  302 at Thu May 27 13:53:44 2021, MaxMem=   13107200 cpu:       0.1
 (Enter /programs/64bit/g09/g09-gfortran/bin/l303.exe)
 DipDrv:  MaxL=1.
 Leave Link  303 at Thu May 27 13:53:44 2021, MaxMem=   13107200 cpu:       0.0
 (Enter /programs/64bit/g09/g09-gfortran/bin/l401.exe)
 Harris functional with IExCor=  402 diagonalized for initial guess.
 ExpMin= 4.38D-02 ExpMax= 3.05D+03 ExpMxC= 4.57D+02 IAcc=2 IRadAn=         0 AccDes= 0.00D+00
 HarFok:  IExCor=  402 AccDes= 0.00D+00 IRadAn=         0 IDoV= 1
 ScaDFX=  1.000000  1.000000  1.000000  1.000000
 FoFCou: FMM=F IPFlag=           0 FMFlag=      100000 FMFlg1=           0
         NFxFlg=           0 DoJE=T BraDBF=F KetDBF=T FulRan=T
         Omega=  0.000000  0.000000  1.000000  0.000000  0.000000 ICntrl=     500 IOpCl=  0
         NMat0=    1 NMatS0=    1 NMatT0=    0 NMatD0=    1 NMtDS0=    0 NMtDT0=    0
         I1Cent=           4 NGrid=           0.
 Symmetry not used in FoFCou.
 Harris En= -79.8972150173592    
 Leave Link  401 at Thu May 27 13:53:45 2021, MaxMem=   13107200 cpu:       0.6
 (Enter /programs/64bit/g09/g09-gfortran/bin/l502.exe)
 Closed shell SCF:
 Requested convergence on RMS density matrix=1.00D-08 within 128 cycles.
 Requested convergence on MAX density matrix=1.00D-06.
 Requested convergence on             energy=1.00D-06.
 No special actions if energy rises.
 Using DIIS extrapolation, IDIIS=  1040.
 Two-electron integral symmetry not used.
        68702 words used for storage of precomputed grid.
 Keep R1 ints in memory in canonical form, NReq=3743087.
 IEnd=      101552 IEndB=      101552 NGot=    13107200 MDV=    10273922
 LenX=    10273922 LenY=    10268857
 Symmetry not used in FoFDir.
 MinBra= 0 MaxBra= 2 Meth= 1.
 IRaf=       0 NMat=   1 IRICut=       1 DoRegI=T DoRafI=F ISym2E= 0 JSym2E=0.

 Cycle   1  Pass 1  IDiag  1:
 E= -79.7101280958165    
 DIIS: error= 3.96D-02 at cycle   1 NSaved=   1.
 NSaved= 1 IEnMin= 1 EnMin= -79.7101280958165     IErMin= 1 ErrMin= 3.96D-02
 ErrMax= 3.96D-02 EMaxC= 1.00D-01 BMatC= 1.15D-01 BMatP= 1.15D-01
 IDIUse=3 WtCom= 6.04D-01 WtEn= 3.96D-01
 Coeff-Com:  0.100D+01
 Coeff-En:   0.100D+01
 Coeff:      0.100D+01
 Gap=     0.283 Goal=   None    Shift=    0.000
 GapD=    0.283 DampG=1.000 DampE=0.500 DampFc=0.5000 IDamp=-1.
 Damping current iteration by 5.00D-01
 RMSDP=9.56D-03 MaxDP=1.39D-01              OVMax= 2.02D-01

 Cycle   2  Pass 1  IDiag  1:
 E= -79.7643570091138     Delta-E=       -0.054228913297 Rises=F Damp=T
 DIIS: error= 1.15D-02 at cycle   2 NSaved=   2.
 NSaved= 2 IEnMin= 2 EnMin= -79.7643570091138     IErMin= 2 ErrMin= 1.15D-02
 ErrMax= 1.15D-02 EMaxC= 1.00D-01 BMatC= 4.48D-03 BMatP= 1.15D-01
 IDIUse=3 WtCom= 8.85D-01 WtEn= 1.15D-01
 Coeff-Com:  0.108D+00 0.892D+00
 Coeff-En:   0.185D+00 0.815D+00
 Coeff:      0.117D+00 0.883D+00
 Gap=     0.372 Goal=   None    Shift=    0.000
 RMSDP=1.27D-03 MaxDP=9.69D-03 DE=-5.42D-02 OVMax= 1.25D-01

 Cycle   3  Pass 1  IDiag  1:
 E= -79.8403170458654     Delta-E=       -0.075960036752 Rises=F Damp=F
 DIIS: error= 2.28D-03 at cycle   3 NSaved=   3.
 NSaved= 3 IEnMin= 3 EnMin= -79.8403170458654     IErMin= 3 ErrMin= 2.28D-03
 ErrMax= 2.28D-03 EMaxC= 1.00D-01 BMatC= 1.52D-04 BMatP= 4.48D-03
 IDIUse=3 WtCom= 9.77D-01 WtEn= 2.28D-02
 Coeff-Com:  0.712D-02 0.106D+00 0.887D+00
 Coeff-En:   0.000D+00 0.000D+00 0.100D+01
 Coeff:      0.695D-02 0.103D+00 0.890D+00
 Gap=     0.365 Goal=   None    Shift=    0.000
 RMSDP=1.97D-04 MaxDP=2.14D-03 DE=-7.60D-02 OVMax= 4.56D-03

 Cycle   4  Pass 1  IDiag  1:
 E= -79.8404474934992     Delta-E=       -0.000130447634 Rises=F Damp=F
 DIIS: error= 7.01D-04 at cycle   4 NSaved=   4.
 NSaved= 4 IEnMin= 4 EnMin= -79.8404474934992     IErMin= 4 ErrMin= 7.01D-04
 ErrMax= 7.01D-04 EMaxC= 1.00D-01 BMatC= 1.05D-05 BMatP= 1.52D-04
 IDIUse=3 WtCom= 9.93D-01 WtEn= 7.01D-03
 Coeff-Com: -0.505D-03-0.511D-02 0.198D+00 0.807D+00
 Coeff-En:   0.000D+00 0.000D+00 0.000D+00 0.100D+01
 Coeff:     -0.501D-03-0.507D-02 0.197D+00 0.809D+00
 Gap=     0.365 Goal=   None    Shift=    0.000
 RMSDP=4.39D-05 MaxDP=4.51D-04 DE=-1.30D-04 OVMax= 1.22D-03

 Cycle   5  Pass 1  IDiag  1:
 E= -79.8404574503178     Delta-E=       -0.000009956819 Rises=F Damp=F
 DIIS: error= 2.47D-05 at cycle   5 NSaved=   5.
 NSaved= 5 IEnMin= 5 EnMin= -79.8404574503178     IErMin= 5 ErrMin= 2.47D-05
 ErrMax= 2.47D-05 EMaxC= 1.00D-01 BMatC= 2.93D-08 BMatP= 1.05D-05
 IDIUse=1 WtCom= 1.00D+00 WtEn= 0.00D+00
 Coeff-Com:  0.334D-03-0.674D-03 0.502D-03 0.173D-01 0.983D+00
 Coeff:      0.334D-03-0.674D-03 0.502D-03 0.173D-01 0.983D+00
 Gap=     0.365 Goal=   None    Shift=    0.000
 RMSDP=3.03D-06 MaxDP=7.41D-05 DE=-9.96D-06 OVMax= 1.01D-04

 Cycle   6  Pass 1  IDiag  1:
 E= -79.8404574720782     Delta-E=       -0.000000021760 Rises=F Damp=F
 DIIS: error= 2.04D-05 at cycle   6 NSaved=   6.
 NSaved= 6 IEnMin= 6 EnMin= -79.8404574720782     IErMin= 6 ErrMin= 2.04D-05
 ErrMax= 2.04D-05 EMaxC= 1.00D-01 BMatC= 1.16D-08 BMatP= 2.93D-08
 IDIUse=1 WtCom= 1.00D+00 WtEn= 0.00D+00
 Coeff-Com:  0.198D-03-0.228D-03-0.543D-02-0.137D-01 0.528D+00 0.491D+00
 Coeff:      0.198D-03-0.228D-03-0.543D-02-0.137D-01 0.528D+00 0.491D+00
 Gap=     0.365 Goal=   None    Shift=    0.000
 RMSDP=1.24D-06 MaxDP=2.65D-05 DE=-2.18D-08 OVMax= 3.70D-05

 Cycle   7  Pass 1  IDiag  1:
 E= -79.8404574833857     Delta-E=       -0.000000011307 Rises=F Damp=F
 DIIS: error= 9.21D-07 at cycle   7 NSaved=   7.
 NSaved= 7 IEnMin= 7 EnMin= -79.8404574833857     IErMin= 7 ErrMin= 9.21D-07
 ErrMax= 9.21D-07 EMaxC= 1.00D-01 BMatC= 3.01D-11 BMatP= 1.16D-08
 IDIUse=1 WtCom= 1.00D+00 WtEn= 0.00D+00
 Coeff-Com: -0.820D-05 0.522D-05-0.226D-03-0.887D-03-0.829D-02 0.374D-01
 Coeff-Com:  0.972D+00
 Coeff:     -0.820D-05 0.522D-05-0.226D-03-0.887D-03-0.829D-02 0.374D-01
 Coeff:      0.972D+00
 Gap=     0.365 Goal=   None    Shift=    0.000
 RMSDP=9.10D-08 MaxDP=1.45D-06 DE=-1.13D-08 OVMax= 1.90D-06

 Cycle   8  Pass 1  IDiag  1:
 E= -79.8404574834188     Delta-E=       -0.000000000033 Rises=F Damp=F
 DIIS: error= 7.71D-08 at cycle   8 NSaved=   8.
 NSaved= 8 IEnMin= 8 EnMin= -79.8404574834188     IErMin= 8 ErrMin= 7.71D-08
 ErrMax= 7.71D-08 EMaxC= 1.00D-01 BMatC= 3.32D-13 BMatP= 3.01D-11
 IDIUse=1 WtCom= 1.00D+00 WtEn= 0.00D+00
 Coeff-Com: -0.296D-05 0.230D-05-0.394D-04-0.202D-03-0.436D-02 0.819D-02
 Coeff-Com:  0.262D+00 0.734D+00
 Coeff:     -0.296D-05 0.230D-05-0.394D-04-0.202D-03-0.436D-02 0.819D-02
 Coeff:      0.262D+00 0.734D+00
 Gap=     0.365 Goal=   None    Shift=    0.000
 RMSDP=1.28D-08 MaxDP=1.44D-07 DE=-3.31D-11 OVMax= 2.17D-07

 Cycle   9  Pass 1  IDiag  1:
 E= -79.8404574834192     Delta-E=       -0.000000000000 Rises=F Damp=F
 DIIS: error= 1.24D-08 at cycle   9 NSaved=   9.
 NSaved= 9 IEnMin= 9 EnMin= -79.8404574834192     IErMin= 9 ErrMin= 1.24D-08
 ErrMax= 1.24D-08 EMaxC= 1.00D-01 BMatC= 9.40D-15 BMatP= 3.32D-13
 IDIUse=1 WtCom= 1.00D+00 WtEn= 0.00D+00
 Coeff-Com:  0.133D-08 0.125D-06 0.693D-05 0.107D-04-0.305D-03-0.896D-03
 Coeff-Com: -0.136D-01 0.115D+00 0.900D+00
 Coeff:      0.133D-08 0.125D-06 0.693D-05 0.107D-04-0.305D-03-0.896D-03
 Coeff:     -0.136D-01 0.115D+00 0.900D+00
 Gap=     0.365 Goal=   None    Shift=    0.000
 RMSDP=2.05D-09 MaxDP=2.29D-08 DE=-3.69D-13 OVMax= 4.27D-08

 SCF Done:  E(RB3LYP) =  -79.8404574834     A.U. after    9 cycles
             Convg  =    0.2054D-08             -V/T =  2.0110
 KE= 7.897103229927D+01 PE=-2.678811193855D+02 EE= 6.700037296760D+01
 Leave Link  502 at Thu May 27 13:53:50 2021, MaxMem=   13107200 cpu:       4.8
 (Enter /programs/64bit/g09/g09-gfortran/bin/l601.exe)
 Copying SCF densities to generalized density rwf, IOpCl= 0 IROHF=0.

 **********************************************************************

            Population analysis using the SCF density.

 **********************************************************************

 Alpha  occ. eigenvalues --  -10.17751 -10.17729  -0.75240  -0.61312  -0.43871
 Alpha  occ. eigenvalues --   -0.43807  -0.35615  -0.34774  -0.34742
 Alpha virt. eigenvalues --    0.01742   0.03168   0.05279   0.05293   0.07954
 Alpha virt. eigenvalues --    0.08964   0.08969   0.14225   0.18960   0.19041
 Alpha virt. eigenvalues --    0.20447   0.20565   0.24501   0.29413   0.32780
 Alpha virt. eigenvalues --    0.62141   0.64300   0.64371   0.66431   0.66533
 Alpha virt. eigenvalues --    0.69194   0.92083   0.92130   0.97109   0.97167
 Alpha virt. eigenvalues --    0.99607   1.09620   1.11241   1.32044   1.32283
 Alpha virt. eigenvalues --    1.46248   1.68710   1.68957   1.89254   2.04149
 Alpha virt. eigenvalues --    2.04302   2.08623   2.08832   2.09170   2.09257
 Alpha virt. eigenvalues --    2.29143   2.29454   2.37958   2.49133   2.49517
 Alpha virt. eigenvalues --    2.66069   2.71920   2.80496   2.80558   2.91296
 Alpha virt. eigenvalues --    2.91855   3.22082   3.28187   3.36253   3.36545
 Alpha virt. eigenvalues --    3.51985   3.52091   4.33293   4.58099
          Condensed to atoms (all electrons):
              1          2          3          4          5          6
     1  C    5.102322   0.258521   0.404912   0.404405   0.404975  -0.046433
     2  C    0.258521   5.097052  -0.046244  -0.044639  -0.046265   0.405319
     3  H    0.404912  -0.046244   0.556719  -0.028355  -0.027694   0.004760
     4  H    0.404405  -0.044639  -0.028355   0.555873  -0.028382  -0.004336
     5  H    0.404975  -0.046265  -0.027694  -0.028382   0.556528  -0.004437
     6  H   -0.046433   0.405319   0.004760  -0.004336  -0.004437   0.555872
     7  H   -0.046463   0.405388  -0.004437  -0.004339   0.004770  -0.027820
     8  H   -0.047202   0.406494  -0.004481   0.004678  -0.004484  -0.027989
              7          8
     1  C   -0.046463  -0.047202
     2  C    0.405388   0.406494
     3  H   -0.004437  -0.004481
     4  H   -0.004339   0.004678
     5  H    0.004770  -0.004484
     6  H   -0.027820  -0.027989
     7  H    0.555700  -0.028011
     8  H   -0.028011   0.555516
 Mulliken atomic charges:
              1
     1  C   -0.435036
     2  C   -0.435626
     3  H    0.144820
     4  H    0.145095
     5  H    0.144990
     6  H    0.145064
     7  H    0.145213
     8  H    0.145480
 Sum of Mulliken atomic charges =  -0.00000
 Mulliken charges with hydrogens summed into heavy atoms:
              1
     1  C   -0.000131
     2  C    0.000131
 Sum of Mulliken charges with hydrogens summed into heavy atoms =  -0.00000
 Electronic spatial extent (au):  <R**2>=            148.7090
 Charge=             -0.0000 electrons
 Dipole moment (field-independent basis, Debye):
    X=              0.0001    Y=              0.0004    Z=             -0.0015  Tot=              0.0015
 Quadrupole moment (field-independent basis, Debye-Ang):
   XX=            -14.9421   YY=            -14.9507   ZZ=            -16.1967
   XY=             -0.0072   XZ=              0.0149   YZ=              0.0235
 Traceless Quadrupole moment (field-independent basis, Debye-Ang):
   XX=              0.4210   YY=              0.4125   ZZ=             -0.8335
   XY=             -0.0072   XZ=              0.0149   YZ=              0.0235
 Octapole moment (field-independent basis, Debye-Ang**2):
  XXX=             -0.0133  YYY=             -0.0066  ZZZ=            -37.5849  XYY=              0.0072
  XXY=             -0.0022  XXZ=            -11.5391  XZZ=              0.0005  YZZ=             -0.0022
  YYZ=            -11.5417  XYZ=             -0.0021
 Hexadecapole moment (field-independent basis, Debye-Ang**3):
 XXXX=            -31.3398 YYYY=            -31.3102 ZZZZ=           -157.7786 XXXY=              0.0045
 XXXZ=             -1.3076 YYYX=             -0.0004 YYYZ=              0.0023 ZZZX=              0.0328
 ZZZY=              0.0278 XXYY=            -10.4447 XXZZ=            -29.6346 YYZZ=            -29.6126
 XXYZ=              0.0008 YYXZ=              1.3248 ZZXY=              0.0163
 N-N= 4.206925663526D+01 E-N=-2.678811195451D+02  KE= 7.897103229927D+01
 No NMR shielding tensors so no spin-rotation constants.
 Leave Link  601 at Thu May 27 13:53:50 2021, MaxMem=   13107200 cpu:       0.0
 (Enter /programs/64bit/g09/g09-gfortran/bin/l701.exe)
 Compute integral first derivatives.
 ... and contract with generalized density number  0.
 Leave Link  701 at Thu May 27 13:53:50 2021, MaxMem=   13107200 cpu:       0.0
 (Enter /programs/64bit/g09/g09-gfortran/bin/l702.exe)
 L702 exits ... SP integral derivatives will be done elsewhere.
 Leave Link  702 at Thu May 27 13:53:50 2021, MaxMem=   13107200 cpu:       0.0
 (Enter /programs/64bit/g09/g09-gfortran/bin/l703.exe)
 Compute integral first derivatives, UseDBF=F ICtDFT=           0.
 Integral derivatives from FoFDir, PRISM(SPDF).
 Calling FoFJK, ICntrl=      2127 FMM=F ISym2X=0 I1Cent= 0 IOpClX= 0 NMat=1 NMatS=1 NMatT=0.
 FoFCou: FMM=F IPFlag=           0 FMFlag=      100000 FMFlg1=         800
         NFxFlg=           0 DoJE=F BraDBF=F KetDBF=F FulRan=T
         Omega=  0.000000  0.000000  1.000000  0.000000  0.000000 ICntrl=    2127 IOpCl=  0
         NMat0=    1 NMatS0=    1 NMatT0=    0 NMatD0=    1 NMtDS0=    0 NMtDT0=    0
         I1Cent=           0 NGrid=           0.
 Symmetry not used in FoFCou.
 Leave Link  703 at Thu May 27 13:53:51 2021, MaxMem=   13107200 cpu:       1.1
 (Enter /programs/64bit/g09/g09-gfortran/bin/l716.exe)
 Dipole        = 3.69173016D-05 1.39884235D-04-5.86371766D-04
 -------------------------------------------------------------------
 Center     Atomic                   Forces (Hartrees/Bohr)
 Number     Number              X              Y              Z
 -------------------------------------------------------------------
      1        6           0.000850374    0.000521764    0.013047725
      2        6          -0.001115175   -0.001122025   -0.015195600
      3        1          -0.001955102    0.000479033   -0.004649951
      4        1           0.000555822    0.000941194   -0.003266137
      5        1           0.001112454   -0.000946477   -0.004866401
      6        1           0.001968227   -0.000011509    0.004936865
      7        1          -0.000754289    0.001268558    0.005124527
      8        1          -0.000662312   -0.001130537    0.004868972
 -------------------------------------------------------------------
 Cartesian Forces:  Max     0.015195600 RMS     0.004787607
 -----------------------------------------------------------------------------------------------
                       Internal Coordinate Forces (Hartree/Bohr or radian)
  Cent   Atom   N1       Length/X         N2         Alpha/Y        N3         Beta/Z          J
 -----------------------------------------------------------------------------------------------
      1  C 
      2  C        1  -0.000265(     1)
      3  H        1  -0.000333(     2)      2   0.010415(     8)
      4  H        1   0.000091(     3)      2   0.007119(     9)      3  -0.000021(    14)     0
      5  H        1   0.000285(     4)      2   0.010438(    10)      3   0.000958(    15)     0
      6  H        2  -0.000252(     5)      1   0.010982(    11)      3   0.000002(    16)     0
      7  H        2   0.000275(     6)      1   0.011008(    12)      6  -0.000037(    17)     0
      8  H        2   0.000348(     7)      1   0.010395(    13)      6   0.000016(    18)     0
 -----------------------------------------------------------------------------------------------
 Internal  Forces:  Max     0.011008332 RMS     0.005866057
 Force constants in Cartesian coordinates: 
                1             2             3             4             5 
      1  0.654222D+00
      2 -0.105172D-02  0.653856D+00
      3  0.225032D-02  0.336798D-02  0.593599D+00
      4 -0.850855D-01 -0.160919D-03 -0.505391D-04  0.657054D+00
      5 -0.160919D-03 -0.852845D-01 -0.126145D-03  0.975336D-04  0.657889D+00
      6  0.221238D-04  0.553487D-05 -0.278618D+00  0.304353D-03  0.762341D-04
      7 -0.310584D+00 -0.801153D-04  0.822552D-01  0.864355D-02 -0.163743D-05
      8 -0.252855D-03 -0.783699D-01 -0.169767D-03 -0.611616D-05  0.727392D-03
      9  0.924414D-01 -0.232456D-03 -0.103778D+00  0.250795D-01 -0.475105D-05
     10 -0.135976D+00 -0.994906D-01 -0.430161D-01  0.284377D-02  0.360563D-02
     11 -0.994650D-01 -0.250817D+00 -0.744786D-01  0.360526D-02  0.700656D-02
     12 -0.481163D-01 -0.833311D-01 -0.107213D+00 -0.124739D-01 -0.216054D-01
     13 -0.136622D+00  0.100783D+00 -0.414389D-01  0.271179D-02 -0.343562D-02
     14  0.100930D+00 -0.253437D+00  0.714065D-01 -0.343076D-02  0.666666D-02
     15 -0.465754D-01  0.801955D-01 -0.103991D+00 -0.125550D-01  0.217363D-01
     16  0.864525D-02  0.000000D+00  0.000000D+00 -0.311021D+00  0.000000D+00
     17 -0.997416D-05  0.721329D-03  0.000000D+00  0.138044D-04 -0.793058D-01
     18  0.250848D-01  0.000000D+00  0.000000D+00  0.922635D-01 -0.131249D-05
     19  0.270821D-02 -0.344193D-02  0.000000D+00 -0.137533D+00  0.100687D+00
     20 -0.343150D-02  0.666456D-02  0.000000D+00  0.100650D+00 -0.253737D+00
     21 -0.125518D-01  0.217405D-01  0.000000D+00 -0.462631D-01  0.801195D-01
     22  0.269158D-02  0.344282D-02  0.000000D+00 -0.137614D+00 -0.100791D+00
     23  0.344237D-02  0.666624D-02  0.000000D+00 -0.100769D+00 -0.253963D+00
     24 -0.125551D-01 -0.217460D-01  0.000000D+00 -0.463048D-01 -0.801945D-01
                6             7             8             9            10 
      6  0.588800D+00
      7  0.000000D+00  0.312069D+00
      8  0.000000D+00  0.952539D-04  0.584236D-01
      9  0.000000D+00 -0.881308D-01  0.276381D-03  0.867297D-01
     10  0.000000D+00 -0.514212D-02 -0.271849D-01 -0.149200D-01  0.121455D+00
     11  0.000000D+00  0.171435D-02  0.941428D-02  0.497424D-02  0.108672D+00
     12  0.000000D+00  0.298219D-02  0.149316D-01  0.865290D-02  0.461578D-01
     13  0.000000D+00 -0.498706D-02  0.273485D-01 -0.144701D-01  0.168191D-01
     14  0.000000D+00 -0.172786D-02  0.980514D-02 -0.501341D-02  0.143979D-01
     15  0.000000D+00  0.289336D-02 -0.150382D-01  0.839516D-02  0.117783D-01
     16  0.825640D-01  0.000000D+00  0.000000D+00  0.000000D+00  0.000000D+00
     17 -0.387579D-05  0.000000D+00  0.601174D-03  0.000000D+00  0.524229D-03
     18 -0.103254D+00  0.000000D+00  0.000000D+00  0.000000D+00  0.000000D+00
     19 -0.414250D-01  0.000000D+00 -0.521023D-03  0.000000D+00 -0.454337D-03
     20  0.717194D-01  0.000000D+00 -0.300813D-03  0.000000D+00 -0.262312D-03
     21 -0.103434D+00  0.000000D+00  0.000000D+00  0.000000D+00  0.000000D+00
     22 -0.414655D-01  0.000000D+00  0.521156D-03  0.000000D+00  0.454453D-03
     23 -0.717973D-01  0.000000D+00 -0.300890D-03  0.000000D+00 -0.262379D-03
     24 -0.103495D+00  0.000000D+00  0.000000D+00  0.000000D+00  0.000000D+00
               11            12            13            14            15 
     11  0.246939D+00
     12  0.799476D-01  0.898999D-01
     13 -0.145270D-01  0.114502D-01  0.122078D+00
     14 -0.125433D-01  0.100573D-01 -0.110169D+00  0.249509D+00
     15 -0.104432D-01  0.866044D-02  0.444588D-01 -0.764505D-01  0.869350D-01
     16  0.000000D+00  0.000000D+00  0.000000D+00  0.000000D+00  0.000000D+00
     17 -0.302664D-03  0.000000D+00 -0.521091D-03 -0.300855D-03  0.000000D+00
     18  0.000000D+00  0.000000D+00  0.000000D+00  0.000000D+00  0.000000D+00
     19  0.262312D-03  0.000000D+00  0.451617D-03  0.260744D-03  0.000000D+00
     20  0.151446D-03  0.000000D+00  0.260742D-03  0.150541D-03  0.000000D+00
     21  0.000000D+00  0.000000D+00  0.000000D+00  0.000000D+00  0.000000D+00
     22 -0.262379D-03  0.000000D+00 -0.451732D-03 -0.260810D-03  0.000000D+00
     23  0.151484D-03  0.000000D+00  0.260808D-03  0.150579D-03  0.000000D+00
     24  0.000000D+00  0.000000D+00  0.000000D+00  0.000000D+00  0.000000D+00
               16            17            18            19            20 
     16  0.312358D+00
     17  0.000000D+00  0.589627D-01
     18 -0.883822D-01  0.000000D+00  0.863716D-01
     19 -0.499082D-02  0.273610D-01 -0.144812D-01  0.122589D+00
     20 -0.172390D-02  0.981081D-02 -0.500200D-02 -0.110050D+00  0.249664D+00
     21  0.290875D-02 -0.150421D-01  0.843992D-02  0.443219D-01 -0.767677D-01
     22 -0.499209D-02 -0.273680D-01 -0.144849D-01  0.172290D-01  0.145572D-01
     23  0.172434D-02  0.981331D-02  0.500329D-02 -0.145572D-01 -0.124041D-01
     24  0.290948D-02  0.150460D-01  0.844205D-02  0.115842D-01  0.100502D-01
               21            22            23            24 
     21  0.865459D-01
     22  0.115842D-01  0.122683D+00
     23 -0.100502D-01  0.110161D+00  0.249886D+00
     24  0.844836D-02  0.443661D-01  0.768443D-01  0.866048D-01
 Force constants in internal coordinates: 
                1             2             3             4             5 
      1  0.278618D+00
      2  0.000000D+00  0.342443D+00
      3  0.000000D+00  0.000000D+00  0.343311D+00
      4  0.000000D+00  0.000000D+00  0.000000D+00  0.343540D+00
      5  0.000000D+00  0.000000D+00  0.000000D+00  0.000000D+00  0.342818D+00
      6  0.000000D+00  0.000000D+00  0.000000D+00  0.000000D+00  0.000000D+00
      7  0.000000D+00  0.000000D+00  0.000000D+00  0.000000D+00  0.000000D+00
      8  0.000000D+00  0.000000D+00  0.000000D+00  0.000000D+00  0.000000D+00
      9  0.000000D+00  0.000000D+00  0.000000D+00  0.000000D+00  0.000000D+00
     10  0.000000D+00  0.000000D+00  0.000000D+00  0.000000D+00  0.000000D+00
     11  0.000000D+00  0.000000D+00  0.000000D+00  0.000000D+00  0.000000D+00
     12  0.000000D+00  0.000000D+00  0.000000D+00  0.000000D+00  0.000000D+00
     13  0.000000D+00  0.000000D+00  0.000000D+00  0.000000D+00  0.000000D+00
     14  0.000000D+00  0.000000D+00  0.000000D+00  0.000000D+00  0.000000D+00
     15  0.000000D+00  0.000000D+00  0.000000D+00  0.000000D+00  0.000000D+00
     16  0.000000D+00  0.000000D+00  0.000000D+00  0.000000D+00  0.000000D+00
     17  0.000000D+00  0.000000D+00  0.000000D+00  0.000000D+00  0.000000D+00
     18  0.000000D+00  0.000000D+00  0.000000D+00  0.000000D+00  0.000000D+00
                6             7             8             9            10 
      6  0.343752D+00
      7  0.000000D+00  0.344068D+00
      8  0.000000D+00  0.000000D+00  0.241291D+00
      9  0.000000D+00  0.000000D+00  0.416767D-01  0.240588D+00
     10  0.000000D+00  0.000000D+00  0.401785D-01  0.416761D-01  0.241291D+00
     11  0.000000D+00  0.000000D+00  0.000000D+00  0.000000D+00  0.000000D+00
     12  0.000000D+00  0.000000D+00  0.000000D+00  0.000000D+00  0.000000D+00
     13  0.000000D+00  0.000000D+00  0.000000D+00  0.000000D+00  0.000000D+00
     14  0.000000D+00  0.000000D+00 -0.655187D-01  0.000000D+00  0.655189D-01
     15  0.000000D+00  0.000000D+00  0.643301D-01 -0.642825D-01 -0.118344D-02
     16  0.000000D+00  0.000000D+00  0.000000D+00  0.000000D+00  0.000000D+00
     17  0.000000D+00  0.000000D+00  0.000000D+00  0.000000D+00  0.000000D+00
     18  0.000000D+00  0.000000D+00  0.000000D+00  0.000000D+00  0.000000D+00
               11            12            13            14            15 
     11  0.239244D+00
     12  0.403735D-01  0.239244D+00
     13  0.403734D-01  0.403732D-01  0.239244D+00
     14  0.000000D+00  0.000000D+00  0.000000D+00  0.221621D+00
     15  0.000000D+00  0.000000D+00  0.000000D+00 -0.107371D+00  0.223587D+00
     16  0.000000D+00  0.000000D+00  0.000000D+00  0.690000D-02  0.690000D-02
     17 -0.643164D-01  0.000000D+00  0.643169D-01  0.230000D-02  0.230000D-02
     18  0.643165D-01 -0.643169D-01  0.000000D+00  0.230000D-02  0.230000D-02
               16            17            18 
     16  0.207000D-01
     17  0.689995D-02  0.225514D+00
     18  0.689988D-02 -0.109307D+00  0.225514D+00
 Leave Link  716 at Thu May 27 13:53:51 2021, MaxMem=   13107200 cpu:       0.0
 (Enter /programs/64bit/g09/g09-gfortran/bin/l103.exe)

 GradGradGradGradGradGradGradGradGradGradGradGradGradGradGradGradGradGrad
 Berny optimization.
 Search for a local minimum.
 Step number   1 out of a maximum of    2
 All quantities printed in internal units (Hartrees-Bohrs-Radians)
 Second derivative matrix not updated -- first step.
 The second derivative matrix:
                          d1        a1        t1        d2        a2
           d1           0.27862
           a1           0.00000   0.24129
           t1           0.00000  -0.06552   0.22162
           d2           0.00000  -0.00000  -0.00000   0.34244
           a2           0.00000   0.04168   0.00000   0.00000   0.24059
           t2           0.00000   0.06433  -0.10737   0.00000  -0.06428
           d3          -0.00000   0.00000  -0.00000   0.00000   0.00000
           d4          -0.00000  -0.00000  -0.00000  -0.00000  -0.00000
           a3           0.00000   0.04018   0.06552   0.00000   0.04168
           d5          -0.00000   0.00000   0.00000   0.00000   0.00000
           a4          -0.00000   0.00000  -0.00000   0.00000  -0.00000
           t3           0.00000   0.00000   0.00690   0.00000  -0.00000
           d6           0.00000   0.00000  -0.00000   0.00000   0.00000
           a5          -0.00000   0.00000   0.00000   0.00000  -0.00000
           t4          -0.00000   0.00000   0.00230   0.00000  -0.00000
           d7           0.00000   0.00000  -0.00000   0.00000   0.00000
           a6           0.00000   0.00000   0.00000   0.00000  -0.00000
           t5           0.00000   0.00000   0.00230   0.00000  -0.00000
                          t2        d3        d4        a3        d5
           t2           0.22359
           d3          -0.00000   0.34331
           d4           0.00000  -0.00000   0.34354
           a3          -0.00118   0.00000   0.00000   0.24129
           d5           0.00000  -0.00000   0.00000  -0.00000   0.34282
           a4           0.00000   0.00000  -0.00000   0.00000  -0.00000
           t3           0.00690   0.00000   0.00000  -0.00000  -0.00000
           d6          -0.00000  -0.00000   0.00000  -0.00000  -0.00000
           a5          -0.00000   0.00000  -0.00000   0.00000  -0.00000
           t4           0.00230   0.00000   0.00000  -0.00000  -0.00000
           d7          -0.00000  -0.00000   0.00000  -0.00000  -0.00000
           a6           0.00000   0.00000  -0.00000   0.00000  -0.00000
           t5           0.00230   0.00000   0.00000   0.00000   0.00000
                          a4        t3        d6        a5        t4
           a4           0.23924
           t3           0.00000   0.02070
           d6           0.00000  -0.00000   0.34375
           a5           0.04037  -0.00000   0.00000   0.23924
           t4          -0.06432   0.00690  -0.00000   0.00000   0.22551
           d7           0.00000   0.00000   0.00000  -0.00000  -0.00000
           a6           0.04037   0.00000  -0.00000   0.04037   0.06432
           t5           0.06432   0.00690   0.00000  -0.06432  -0.10931
                          d7        a6        t5
           d7           0.34407
           a6          -0.00000   0.23924
           t5           0.00000  -0.00000   0.22551
     Eigenvalues --- 1000.000001000.000001000.000001000.000001000.00000
     Eigenvalues --- 1000.000001000.000001000.000001000.000001000.00000
     Eigenvalues --- 1000.000001000.000001000.000001000.000001000.00000
     Eigenvalues --- 1000.000001000.000001000.00000
 Angle between quadratic step and forces=  90.00 degrees.
 Linear search not attempted -- first point.
 Variable       Old X    -DE/DX   Delta X   Delta X   Delta X     New X
                                 (Linear)    (Quad)   (Total)
    d1        2.92442  -0.00027   0.00000   0.00000   0.00000   2.92442
    a1        1.90269   0.01041   0.00000   0.00000   0.00000   1.90269
    t1        2.09440  -0.00002   0.00000   0.00000   0.00000   2.09440
    d2        2.06920  -0.00033   0.00000   0.00000   0.00000   2.06920
    a2        1.92015   0.00712   0.00000   0.00000   0.00000   1.92015
    t2       -2.09440   0.00096   0.00000   0.00000   0.00000  -2.09440
    d3        2.06775   0.00009   0.00000   0.00000   0.00000   2.06775
    d4        2.06737   0.00028   0.00000   0.00000   0.00000   2.06737
    a3        1.90269   0.01044   0.00000   0.00000   0.00000   1.90269
    d5        2.06857  -0.00025   0.00000   0.00000   0.00000   2.06857
    a4        1.90269   0.01098   0.00000   0.00000   0.00000   1.90269
    t3        3.14159   0.00000   0.00000   0.00000   0.00000   3.14159
    d6        2.06701   0.00027   0.00000   0.00000   0.00000   2.06701
    a5        1.90269   0.01101   0.00000   0.00000   0.00000   1.90269
    t4        2.09440  -0.00004   0.00000   0.00000   0.00000   2.09440
    d7        2.06649   0.00035   0.00000   0.00000   0.00000   2.06649
    a6        1.90269   0.01039   0.00000   0.00000   0.00000   1.90269
    t5       -2.09440   0.00002   0.00000   0.00000   0.00000  -2.09440
         Item               Value     Threshold  Converged?
 Maximum Force            0.000000     0.000450     YES
 RMS     Force            0.000000     0.000300     YES
 Maximum Displacement     0.000000     0.001800     YES
 RMS     Displacement     0.000000     0.001200     YES
 Predicted change in Energy=-0.000000D+00
 Optimization completed.
    -- Stationary point found.
                       ----------------------------
                       !   Optimized Parameters   !
                       ! (Angstroms and Degrees)  !
 ----------------------                            ----------------------
 !      Name          Value   Derivative information (Atomic Units)     !
 ------------------------------------------------------------------------
 !       d1          1.5475   -DE/DX =   -0.0003                        !
 !       a1        109.0163   -DE/DX =    0.0104                        !
 !       t1        120.0      -DE/DX =    0.0                           !
 !       d2          1.095    -DE/DX =   -0.0003                        !
 !       a2        110.0163   -DE/DX =    0.0071                        !
 !       t2       -120.0002   -DE/DX =    0.001                         !
 !       d3          1.0942   -DE/DX =    0.0001                        !
 !       d4          1.094    -DE/DX =    0.0003                        !
 !       a3        109.0162   -DE/DX =    0.0104                        !
 !       d5          1.0946   -DE/DX =   -0.0003                        !
 !       a4        109.0161   -DE/DX =    0.011                         !
 !       t3        180.0      -DE/DX =    0.0                           !
 !       d6          1.0938   -DE/DX =    0.0003                        !
 !       a5        109.016    -DE/DX =    0.011                         !
 !       t4        120.0      -DE/DX =    0.0                           !
 !       d7          1.0935   -DE/DX =    0.0003                        !
 !       a6        109.016    -DE/DX =    0.0104                        !
 !       t5       -120.0      -DE/DX =    0.0                           !
 ------------------------------------------------------------------------
 GradGradGradGradGradGradGradGradGradGradGradGradGradGradGradGradGradGrad

 Leave Link  103 at Thu May 27 13:53:51 2021, MaxMem=   13107200 cpu:       0.0
 (Enter /programs/64bit/g09/g09-gfortran/bin/l9999.exe)
 1\1\GINC-MOLMOD\Force\RB3LYP\6-31+G(d,p)\C2H6\OSPITE\27-May-2021\1\\#p
  b3lyp/6-31+g(d,p) force nosym\\c2h6 molecule\\0,1\C\C,1,d1\H,1,d2,2,a
 1\H,1,d3,2,a2,3,t1,0\H,1,d4,2,a3,3,t2,0\H,2,d5,1,a4,3,t3,0\H,2,d6,1,a5
 ,6,t4,0\H,2,d7,1,a6,6,t5,0\\d1=1.54753485\a1=109.01634052\t1=120.00003
 051\d2=1.09497205\a2=110.01626651\t2=-120.00020515\d3=1.09420581\d4=1.
 09400435\a3=109.01624737\d5=1.09464037\a4=109.01607636\t3=179.99999825
 \d6=1.09381705\a5=109.01602045\t4=120.00002412\d7=1.09353923\a6=109.01
 599312\t5=-120.00001897\\Version=EM64L-G09RevA.02\HF=-79.8404575\RMSD=
 2.054e-09\RMSF=4.788e-03\Dipole=0.0000369,0.0001399,-0.0005864\Quadrup
 ole=0.3130313,0.3066565,-0.6196878,-0.0053746,0.0110494,0.0174357\PG=C
 01 [X(C2H6)]\\@


 BE NOT THE FIRST BY WHOM THE NEW ARE TRIED,
 NOR YET THE THE LAST TO LAY THE OLD ASIDE.

                          -- ALEXANDER POPE
 Job cpu time:  0 days  0 hours  0 minutes  6.8 seconds.
 File lengths (MBytes):  RWF=      5 Int=      0 D2E=      0 Chk=      1 Scr=      1
 Normal termination of Gaussian 09 at Thu May 27 13:53:51 2021.
