 Entering Gaussian System, Link 0=g09
 Input=c2h6_035.com
 Output=c2h6_035.log
 Initial command:
 /programs/64bit/g09/g09-gfortran/bin/l1.exe /data/scratch/Gau-17756.inp -scrdir=/data/scratch/
 Entering Link 1 = /programs/64bit/g09/g09-gfortran/bin/l1.exe PID=     17757.
  
 Copyright (c) 1988,1990,1992,1993,1995,1998,2003,2009, Gaussian, Inc.
                  All Rights Reserved.
  
 This is part of the Gaussian(R) 09 program.  It is based on
 the Gaussian(R) 03 system (copyright 2003, Gaussian, Inc.),
 the Gaussian(R) 98 system (copyright 1998, Gaussian, Inc.),
 the Gaussian(R) 94 system (copyright 1995, Gaussian, Inc.),
 the Gaussian 92(TM) system (copyright 1992, Gaussian, Inc.),
 the Gaussian 90(TM) system (copyright 1990, Gaussian, Inc.),
 the Gaussian 88(TM) system (copyright 1988, Gaussian, Inc.),
 the Gaussian 86(TM) system (copyright 1986, Carnegie Mellon
 University), and the Gaussian 82(TM) system (copyright 1983,
 Carnegie Mellon University). Gaussian is a federally registered
 trademark of Gaussian, Inc.
  
 This software contains proprietary and confidential information,
 including trade secrets, belonging to Gaussian, Inc.
  
 This software is provided under written license and may be
 used, copied, transmitted, or stored only in accord with that
 written license.
  
 The following legend is applicable only to US Government
 contracts under FAR:
  
                    RESTRICTED RIGHTS LEGEND
  
 Use, reproduction and disclosure by the US Government is
 subject to restrictions as set forth in subparagraphs (a)
 and (c) of the Commercial Computer Software - Restricted
 Rights clause in FAR 52.227-19.
  
 Gaussian, Inc.
 340 Quinnipiac St., Bldg. 40, Wallingford CT 06492
  
  
 ---------------------------------------------------------------
 Warning -- This program may not be used in any manner that
 competes with the business of Gaussian, Inc. or will provide
 assistance to any competitor of Gaussian, Inc.  The licensee
 of this program is prohibited from giving any competitor of
 Gaussian, Inc. access to this program.  By using this program,
 the user acknowledges that Gaussian, Inc. is engaged in the
 business of creating and licensing software in the field of
 computational chemistry and represents and warrants to the
 licensee that it is not a competitor of Gaussian, Inc. and that
 it will not use this program in any manner prohibited above.
 ---------------------------------------------------------------
  

 Cite this work as:
 Gaussian 09, Revision A.02,
 M. J. Frisch, G. W. Trucks, H. B. Schlegel, G. E. Scuseria, 
 M. A. Robb, J. R. Cheeseman, G. Scalmani, V. Barone, B. Mennucci, 
 G. A. Petersson, H. Nakatsuji, M. Caricato, X. Li, H. P. Hratchian, 
 A. F. Izmaylov, J. Bloino, G. Zheng, J. L. Sonnenberg, M. Hada, 
 M. Ehara, K. Toyota, R. Fukuda, J. Hasegawa, M. Ishida, T. Nakajima, 
 Y. Honda, O. Kitao, H. Nakai, T. Vreven, J. A. Montgomery, Jr., 
 J. E. Peralta, F. Ogliaro, M. Bearpark, J. J. Heyd, E. Brothers, 
 K. N. Kudin, V. N. Staroverov, R. Kobayashi, J. Normand, 
 K. Raghavachari, A. Rendell, J. C. Burant, S. S. Iyengar, J. Tomasi, 
 M. Cossi, N. Rega, J. M. Millam, M. Klene, J. E. Knox, J. B. Cross, 
 V. Bakken, C. Adamo, J. Jaramillo, R. Gomperts, R. E. Stratmann, 
 O. Yazyev, A. J. Austin, R. Cammi, C. Pomelli, J. W. Ochterski, 
 R. L. Martin, K. Morokuma, V. G. Zakrzewski, G. A. Voth, 
 P. Salvador, J. J. Dannenberg, S. Dapprich, A. D. Daniels, 
 O. Farkas, J. B. Foresman, J. V. Ortiz, J. Cioslowski, 
 and D. J. Fox, Gaussian, Inc., Wallingford CT, 2009.
 
 ******************************************
 Gaussian 09:  EM64L-G09RevA.02 11-Jun-2009
                27-May-2021 
 ******************************************
 %chk=c2h6_035.chk
 %mem=100MB
 --------------------------------
 #p b3lyp/6-31+g(d,p) force nosym
 --------------------------------
 1/10=7,30=1,38=1/1,3;
 2/12=2,15=1,17=6,18=5,40=1/2;
 3/5=1,6=6,7=111,11=2,16=1,25=1,30=1,71=1,74=-5/1,2,3;
 4//1;
 5/5=2,38=5/2;
 6/7=2,8=2,9=2,10=2,28=1/1;
 7/29=1,30=1/1,2,3,16;
 1/10=7,30=1/3;
 99//99;
 Leave Link    1 at Thu May 27 13:55:19 2021, MaxMem=   13107200 cpu:       0.0
 (Enter /programs/64bit/g09/g09-gfortran/bin/l101.exe)
 -------------
 c2h6 molecule
 -------------
 Symbolic Z-matrix:
 Charge =  0 Multiplicity = 1
 C1
 C2                   1    d1
 H3                   1    d2       2    a1
 H4                   1    d3       2    a2       3    t1       0
 H5                   1    d4       2    a3       3    t2       0
 H6                   2    d5       1    a4       3    t3       0
 H7                   2    d6       1    a5       6    t4       0
 H8                   2    d7       1    a6       6    t5       0
       Variables:
       Constants:
  d1                    1.52221                  
  a1                  110.76385                  
  t1                  120.00053                  
  d2                    1.09002                  
  a2                  111.23628                  
  t2                 -119.85496                  
  d3                    1.08792                  
  d4                    1.09725                  
  a3                  110.76421                  
  d5                    1.09371                  
  a4                  110.84513                  
  t3                  180.                       
  d6                    1.0858                   
  a5                  110.84756                  
  t4                  120.00005                  
  d7                    1.09822                  
  a6                  110.74918                  
  t5                 -119.99998                  
 
 NAtoms=      8 NQM=      8 NQMF=      0 NMic=      0 NMicF=      0 NTot=      8.
                    Isotopes and Nuclear Properties:
 (Nuclear quadrupole moments (NQMom) in fm**2, nuclear magnetic moments (NMagM)
  in nuclear magnetons)

  Atom         1           2           3           4           5           6           7           8
 IAtWgt=          12          12           1           1           1           1           1           1
 AtmWgt=  12.0000000  12.0000000   1.0078250   1.0078250   1.0078250   1.0078250   1.0078250   1.0078250
 NucSpn=           0           0           1           1           1           1           1           1
 AtZEff=   0.0000000   0.0000000   0.0000000   0.0000000   0.0000000   0.0000000   0.0000000   0.0000000
 NQMom=    0.0000000   0.0000000   0.0000000   0.0000000   0.0000000   0.0000000   0.0000000   0.0000000
 NMagM=    0.0000000   0.0000000   2.7928460   2.7928460   2.7928460   2.7928460   2.7928460   2.7928460
 Leave Link  101 at Thu May 27 13:55:19 2021, MaxMem=   13107200 cpu:       0.0
 (Enter /programs/64bit/g09/g09-gfortran/bin/l103.exe)

 GradGradGradGradGradGradGradGradGradGradGradGradGradGradGradGradGradGrad
 Berny optimization.
 Initialization pass.
                       ----------------------------
                       !    Initial Parameters    !
                       ! (Angstroms and Degrees)  !
 ----------------------                            ----------------------
 !      Name          Value   Derivative information (Atomic Units)     !
 ------------------------------------------------------------------------
 !       d1          1.5222   Frozen                                    !
 !       a1        110.7639   Frozen                                    !
 !       t1        120.0005   Frozen                                    !
 !       d2          1.09     Frozen                                    !
 !       a2        111.2363   Frozen                                    !
 !       t2       -119.855    Frozen                                    !
 !       d3          1.0879   Frozen                                    !
 !       d4          1.0973   Frozen                                    !
 !       a3        110.7642   Frozen                                    !
 !       d5          1.0937   Frozen                                    !
 !       a4        110.8451   Frozen                                    !
 !       t3        180.0      Frozen                                    !
 !       d6          1.0858   Frozen                                    !
 !       a5        110.8476   Frozen                                    !
 !       t4        120.0      Frozen                                    !
 !       d7          1.0982   Frozen                                    !
 !       a6        110.7492   Frozen                                    !
 !       t5       -120.0      Frozen                                    !
 ------------------------------------------------------------------------
 Trust Radius=3.00D-01 FncErr=1.00D-07 GrdErr=1.00D-07
 Number of steps in this run=   2 maximum allowed number of steps=   2.
 GradGradGradGradGradGradGradGradGradGradGradGradGradGradGradGradGradGrad

 Leave Link  103 at Thu May 27 13:55:19 2021, MaxMem=   13107200 cpu:       0.0
 (Enter /programs/64bit/g09/g09-gfortran/bin/l202.exe)
                          Input orientation:                          
 ---------------------------------------------------------------------
 Center     Atomic      Atomic             Coordinates (Angstroms)
 Number     Number       Type             X           Y           Z
 ---------------------------------------------------------------------
      1          6           0        0.000000    0.000000    0.000000
      2          6           0        0.000000    0.000000    1.522207
      3          1           0        1.019223    0.000000   -0.386431
      4          1           0       -0.507031   -0.878185   -0.394062
      5          1           0       -0.510742    0.889825   -0.389002
      6          1           0       -1.022125    0.000000    1.911397
      7          1           0        0.507355   -0.878764    1.908623
      8          1           0        0.513495    0.889401    1.911282
 ---------------------------------------------------------------------
                    Distance matrix (angstroms):
                    1          2          3          4          5
     1  C    0.000000
     2  C    1.522207   0.000000
     3  H    1.090020   2.163726   0.000000
     4  H    1.087922   2.168034   1.760886   0.000000
     5  H    1.097255   2.169185   1.769911   1.768021   0.000000
     6  H    2.167528   1.093713   3.073615   2.520252   2.518955
     7  H    2.161591   1.085796   2.510280   2.516214   3.073029
     8  H    2.169726   1.098222   2.515210   3.079033   2.518009
                    6          7          8
     6  H    0.000000
     7  H    1.763956   0.000000
     8  H    1.774588   1.768177   0.000000
 Symmetry turned off by external request.
 Stoichiometry    C2H6
 Framework group  C1[X(C2H6)]
 Deg. of freedom    18
 Full point group                 C1      NOp   1
 Rotational constants (GHZ):     80.2480046     20.1764005     20.1723964
 Leave Link  202 at Thu May 27 13:55:19 2021, MaxMem=   13107200 cpu:       0.0
 (Enter /programs/64bit/g09/g09-gfortran/bin/l301.exe)
 Standard basis: 6-31+G(d,p) (6D, 7F)
 Ernie: Thresh=  0.10000D-02 Tol=  0.10000D-05 Strict=F.
 Integral buffers will be    131072 words long.
 Raffenetti 2 integral format.
 Two-electron integral symmetry is turned off.
    68 basis functions,   106 primitive gaussians,    68 cartesian basis functions
     9 alpha electrons        9 beta electrons
       nuclear repulsion energy        42.3250808802 Hartrees.
 IExCor=  402 DFT=T Ex+Corr=B3LYP ExCW=0 ScaHFX=  0.200000
 ScaDFX=  0.800000  0.720000  1.000000  0.810000 ScalE2=  1.000000  1.000000
 IRadAn=      0 IRanWt=     -1 IRanGd=            0 ICorTp=0
 NAtoms=    8 NActive=    8 NUniq=    8 SFac= 7.50D-01 NAtFMM=   80 NAOKFM=F Big=F
 Leave Link  301 at Thu May 27 13:55:19 2021, MaxMem=   13107200 cpu:       0.0
 (Enter /programs/64bit/g09/g09-gfortran/bin/l302.exe)
 NPDir=0 NMtPBC=     1 NCelOv=     1 NCel=       1 NClECP=     1 NCelD=      1
         NCelK=      1 NCelE2=     1 NClLst=     1 CellRange=     0.0.
 One-electron integrals computed using PRISM.
 NBasis=    68 RedAO= T  NBF=    68
 NBsUse=    68 1.00D-06 NBFU=    68
 Precomputing XC quadrature grid using
 IXCGrd= 2 IRadAn=           0 IRanWt=          -1 IRanGd=           0 AccXCQ= 1.00D-10.
 NRdTot=     510 NPtTot=       65100 NUsed=       68787 NTot=       68819
 NSgBfM=    68    68    68    68    68 NAtAll=     8     8.
 Leave Link  302 at Thu May 27 13:55:19 2021, MaxMem=   13107200 cpu:       0.1
 (Enter /programs/64bit/g09/g09-gfortran/bin/l303.exe)
 DipDrv:  MaxL=1.
 Leave Link  303 at Thu May 27 13:55:19 2021, MaxMem=   13107200 cpu:       0.0
 (Enter /programs/64bit/g09/g09-gfortran/bin/l401.exe)
 Harris functional with IExCor=  402 diagonalized for initial guess.
 ExpMin= 4.38D-02 ExpMax= 3.05D+03 ExpMxC= 4.57D+02 IAcc=2 IRadAn=         0 AccDes= 0.00D+00
 HarFok:  IExCor=  402 AccDes= 0.00D+00 IRadAn=         0 IDoV= 1
 ScaDFX=  1.000000  1.000000  1.000000  1.000000
 FoFCou: FMM=F IPFlag=           0 FMFlag=      100000 FMFlg1=           0
         NFxFlg=           0 DoJE=T BraDBF=F KetDBF=T FulRan=T
         Omega=  0.000000  0.000000  1.000000  0.000000  0.000000 ICntrl=     500 IOpCl=  0
         NMat0=    1 NMatS0=    1 NMatT0=    0 NMatD0=    1 NMtDS0=    0 NMtDT0=    0
         I1Cent=           4 NGrid=           0.
 Symmetry not used in FoFCou.
 Harris En= -79.9008516235236    
 Leave Link  401 at Thu May 27 13:55:20 2021, MaxMem=   13107200 cpu:       0.6
 (Enter /programs/64bit/g09/g09-gfortran/bin/l502.exe)
 Closed shell SCF:
 Requested convergence on RMS density matrix=1.00D-08 within 128 cycles.
 Requested convergence on MAX density matrix=1.00D-06.
 Requested convergence on             energy=1.00D-06.
 No special actions if energy rises.
 Using DIIS extrapolation, IDIIS=  1040.
 Two-electron integral symmetry not used.
        68702 words used for storage of precomputed grid.
 Keep R1 ints in memory in canonical form, NReq=3743087.
 IEnd=      101552 IEndB=      101552 NGot=    13107200 MDV=    10273922
 LenX=    10273922 LenY=    10268857
 Symmetry not used in FoFDir.
 MinBra= 0 MaxBra= 2 Meth= 1.
 IRaf=       0 NMat=   1 IRICut=       1 DoRegI=T DoRafI=F ISym2E= 0 JSym2E=0.

 Cycle   1  Pass 1  IDiag  1:
 E= -79.7068011584518    
 DIIS: error= 4.05D-02 at cycle   1 NSaved=   1.
 NSaved= 1 IEnMin= 1 EnMin= -79.7068011584518     IErMin= 1 ErrMin= 4.05D-02
 ErrMax= 4.05D-02 EMaxC= 1.00D-01 BMatC= 1.19D-01 BMatP= 1.19D-01
 IDIUse=3 WtCom= 5.95D-01 WtEn= 4.05D-01
 Coeff-Com:  0.100D+01
 Coeff-En:   0.100D+01
 Coeff:      0.100D+01
 Gap=     0.278 Goal=   None    Shift=    0.000
 GapD=    0.278 DampG=1.000 DampE=0.500 DampFc=0.5000 IDamp=-1.
 Damping current iteration by 5.00D-01
 RMSDP=9.74D-03 MaxDP=1.42D-01              OVMax= 2.01D-01

 Cycle   2  Pass 1  IDiag  1:
 E= -79.7624917023905     Delta-E=       -0.055690543939 Rises=F Damp=T
 DIIS: error= 1.20D-02 at cycle   2 NSaved=   2.
 NSaved= 2 IEnMin= 2 EnMin= -79.7624917023905     IErMin= 2 ErrMin= 1.20D-02
 ErrMax= 1.20D-02 EMaxC= 1.00D-01 BMatC= 4.72D-03 BMatP= 1.19D-01
 IDIUse=3 WtCom= 8.80D-01 WtEn= 1.20D-01
 Coeff-Com:  0.110D+00 0.890D+00
 Coeff-En:   0.189D+00 0.811D+00
 Coeff:      0.120D+00 0.880D+00
 Gap=     0.384 Goal=   None    Shift=    0.000
 RMSDP=1.32D-03 MaxDP=1.06D-02 DE=-5.57D-02 OVMax= 1.25D-01

 Cycle   3  Pass 1  IDiag  1:
 E= -79.8412158377266     Delta-E=       -0.078724135336 Rises=F Damp=F
 DIIS: error= 2.35D-03 at cycle   3 NSaved=   3.
 NSaved= 3 IEnMin= 3 EnMin= -79.8412158377266     IErMin= 3 ErrMin= 2.35D-03
 ErrMax= 2.35D-03 EMaxC= 1.00D-01 BMatC= 1.68D-04 BMatP= 4.72D-03
 IDIUse=3 WtCom= 9.77D-01 WtEn= 2.35D-02
 Coeff-Com:  0.839D-02 0.112D+00 0.879D+00
 Coeff-En:   0.000D+00 0.000D+00 0.100D+01
 Coeff:      0.819D-02 0.110D+00 0.882D+00
 Gap=     0.362 Goal=   None    Shift=    0.000
 RMSDP=2.06D-04 MaxDP=2.15D-03 DE=-7.87D-02 OVMax= 4.63D-03

 Cycle   4  Pass 1  IDiag  1:
 E= -79.8413605481378     Delta-E=       -0.000144710411 Rises=F Damp=F
 DIIS: error= 6.97D-04 at cycle   4 NSaved=   4.
 NSaved= 4 IEnMin= 4 EnMin= -79.8413605481378     IErMin= 4 ErrMin= 6.97D-04
 ErrMax= 6.97D-04 EMaxC= 1.00D-01 BMatC= 1.06D-05 BMatP= 1.68D-04
 IDIUse=3 WtCom= 9.93D-01 WtEn= 6.97D-03
 Coeff-Com: -0.418D-03-0.591D-02 0.188D+00 0.818D+00
 Coeff-En:   0.000D+00 0.000D+00 0.000D+00 0.100D+01
 Coeff:     -0.415D-03-0.587D-02 0.187D+00 0.819D+00
 Gap=     0.362 Goal=   None    Shift=    0.000
 RMSDP=4.35D-05 MaxDP=4.15D-04 DE=-1.45D-04 OVMax= 1.19D-03

 Cycle   5  Pass 1  IDiag  1:
 E= -79.8413705109433     Delta-E=       -0.000009962806 Rises=F Damp=F
 DIIS: error= 2.61D-05 at cycle   5 NSaved=   5.
 NSaved= 5 IEnMin= 5 EnMin= -79.8413705109433     IErMin= 5 ErrMin= 2.61D-05
 ErrMax= 2.61D-05 EMaxC= 1.00D-01 BMatC= 2.85D-08 BMatP= 1.06D-05
 IDIUse=1 WtCom= 1.00D+00 WtEn= 0.00D+00
 Coeff-Com:  0.398D-03-0.523D-03-0.396D-02-0.388D-02 0.101D+01
 Coeff:      0.398D-03-0.523D-03-0.396D-02-0.388D-02 0.101D+01
 Gap=     0.362 Goal=   None    Shift=    0.000
 RMSDP=2.64D-06 MaxDP=5.63D-05 DE=-9.96D-06 OVMax= 8.77D-05

 Cycle   6  Pass 1  IDiag  1:
 E= -79.8413705404202     Delta-E=       -0.000000029477 Rises=F Damp=F
 DIIS: error= 1.15D-05 at cycle   6 NSaved=   6.
 NSaved= 6 IEnMin= 6 EnMin= -79.8413705404202     IErMin= 6 ErrMin= 1.15D-05
 ErrMax= 1.15D-05 EMaxC= 1.00D-01 BMatC= 3.74D-09 BMatP= 2.85D-08
 IDIUse=1 WtCom= 1.00D+00 WtEn= 0.00D+00
 Coeff-Com:  0.191D-03-0.195D-03-0.401D-02-0.108D-01 0.480D+00 0.535D+00
 Coeff:      0.191D-03-0.195D-03-0.401D-02-0.108D-01 0.480D+00 0.535D+00
 Gap=     0.362 Goal=   None    Shift=    0.000
 RMSDP=7.79D-07 MaxDP=1.61D-05 DE=-2.95D-08 OVMax= 2.22D-05

 Cycle   7  Pass 1  IDiag  1:
 E= -79.8413705439591     Delta-E=       -0.000000003539 Rises=F Damp=F
 DIIS: error= 1.81D-06 at cycle   7 NSaved=   7.
 NSaved= 7 IEnMin= 7 EnMin= -79.8413705439591     IErMin= 7 ErrMin= 1.81D-06
 ErrMax= 1.81D-06 EMaxC= 1.00D-01 BMatC= 9.97D-11 BMatP= 3.74D-09
 IDIUse=1 WtCom= 1.00D+00 WtEn= 0.00D+00
 Coeff-Com: -0.598D-05 0.336D-06-0.343D-03-0.124D-02 0.756D-03 0.136D+00
 Coeff-Com:  0.865D+00
 Coeff:     -0.598D-05 0.336D-06-0.343D-03-0.124D-02 0.756D-03 0.136D+00
 Coeff:      0.865D+00
 Gap=     0.362 Goal=   None    Shift=    0.000
 RMSDP=1.33D-07 MaxDP=2.37D-06 DE=-3.54D-09 OVMax= 3.21D-06

 Cycle   8  Pass 1  IDiag  1:
 E= -79.8413705440589     Delta-E=       -0.000000000100 Rises=F Damp=F
 DIIS: error= 1.59D-07 at cycle   8 NSaved=   8.
 NSaved= 8 IEnMin= 8 EnMin= -79.8413705440589     IErMin= 8 ErrMin= 1.59D-07
 ErrMax= 1.59D-07 EMaxC= 1.00D-01 BMatC= 1.08D-12 BMatP= 9.97D-11
 IDIUse=1 WtCom= 1.00D+00 WtEn= 0.00D+00
 Coeff-Com: -0.343D-05 0.159D-05-0.801D-04-0.335D-03-0.360D-02 0.411D-01
 Coeff-Com:  0.288D+00 0.675D+00
 Coeff:     -0.343D-05 0.159D-05-0.801D-04-0.335D-03-0.360D-02 0.411D-01
 Coeff:      0.288D+00 0.675D+00
 Gap=     0.362 Goal=   None    Shift=    0.000
 RMSDP=2.17D-08 MaxDP=2.01D-07 DE=-9.98D-11 OVMax= 3.67D-07

 Cycle   9  Pass 1  IDiag  1:
 E= -79.8413705440602     Delta-E=       -0.000000000001 Rises=F Damp=F
 DIIS: error= 1.40D-08 at cycle   9 NSaved=   9.
 NSaved= 9 IEnMin= 9 EnMin= -79.8413705440602     IErMin= 9 ErrMin= 1.40D-08
 ErrMax= 1.40D-08 EMaxC= 1.00D-01 BMatC= 8.08D-15 BMatP= 1.08D-12
 IDIUse=1 WtCom= 1.00D+00 WtEn= 0.00D+00
 Coeff-Com: -0.309D-08 0.204D-06 0.877D-05 0.151D-04-0.480D-03-0.235D-02
 Coeff-Com: -0.124D-01 0.391D-01 0.976D+00
 Coeff:     -0.309D-08 0.204D-06 0.877D-05 0.151D-04-0.480D-03-0.235D-02
 Coeff:     -0.124D-01 0.391D-01 0.976D+00
 Gap=     0.362 Goal=   None    Shift=    0.000
 RMSDP=1.77D-09 MaxDP=1.72D-08 DE=-1.26D-12 OVMax= 4.82D-08

 SCF Done:  E(RB3LYP) =  -79.8413705441     A.U. after    9 cycles
             Convg  =    0.1775D-08             -V/T =  2.0104
 KE= 7.901816276973D+01 PE=-2.684216049801D+02 EE= 6.723699078606D+01
 Leave Link  502 at Thu May 27 13:55:25 2021, MaxMem=   13107200 cpu:       4.8
 (Enter /programs/64bit/g09/g09-gfortran/bin/l601.exe)
 Copying SCF densities to generalized density rwf, IOpCl= 0 IROHF=0.

 **********************************************************************

            Population analysis using the SCF density.

 **********************************************************************

 Alpha  occ. eigenvalues --  -10.17595 -10.17556  -0.75593  -0.61614  -0.43747
 Alpha  occ. eigenvalues --   -0.43715  -0.36763  -0.34462  -0.34444
 Alpha virt. eigenvalues --    0.01763   0.03112   0.05327   0.05330   0.08020
 Alpha virt. eigenvalues --    0.08985   0.08987   0.14314   0.19482   0.19514
 Alpha virt. eigenvalues --    0.20081   0.20137   0.25813   0.29777   0.32943
 Alpha virt. eigenvalues --    0.61564   0.64355   0.64364   0.66822   0.66871
 Alpha virt. eigenvalues --    0.70089   0.91602   0.91643   0.97032   0.97061
 Alpha virt. eigenvalues --    1.00462   1.10278   1.11329   1.32276   1.32356
 Alpha virt. eigenvalues --    1.46459   1.68063   1.68187   1.90648   2.05080
 Alpha virt. eigenvalues --    2.05187   2.09913   2.10272   2.11234   2.11323
 Alpha virt. eigenvalues --    2.27427   2.27556   2.38209   2.48342   2.48540
 Alpha virt. eigenvalues --    2.69125   2.77940   2.80549   2.80755   2.91305
 Alpha virt. eigenvalues --    2.91496   3.22314   3.27245   3.39008   3.39163
 Alpha virt. eigenvalues --    3.52767   3.53013   4.33348   4.58561
          Condensed to atoms (all electrons):
              1          2          3          4          5          6
     1  C    5.088721   0.266270   0.405759   0.405204   0.405902  -0.045964
     2  C    0.266270   5.087376  -0.045988  -0.044866  -0.046310   0.405645
     3  H    0.405759  -0.045988   0.558525  -0.029776  -0.029248   0.004784
     4  H    0.405204  -0.044866  -0.029776   0.557644  -0.029374  -0.004380
     5  H    0.405902  -0.046310  -0.029248  -0.029374   0.559293  -0.004417
     6  H   -0.045964   0.405645   0.004784  -0.004380  -0.004417   0.558581
     7  H   -0.045590   0.405530  -0.004450  -0.004367   0.004785  -0.029552
     8  H   -0.046533   0.406178  -0.004445   0.004730  -0.004449  -0.029114
              7          8
     1  C   -0.045590  -0.046533
     2  C    0.405530   0.406178
     3  H   -0.004450  -0.004445
     4  H   -0.004367   0.004730
     5  H    0.004785  -0.004449
     6  H   -0.029552  -0.029114
     7  H    0.557480  -0.029380
     8  H   -0.029380   0.559208
 Mulliken atomic charges:
              1
     1  C   -0.433770
     2  C   -0.433836
     3  H    0.144838
     4  H    0.145185
     5  H    0.143819
     6  H    0.144416
     7  H    0.145543
     8  H    0.143805
 Sum of Mulliken atomic charges =   0.00000
 Mulliken charges with hydrogens summed into heavy atoms:
              1
     1  C    0.000072
     2  C   -0.000072
 Sum of Mulliken charges with hydrogens summed into heavy atoms =   0.00000
 Electronic spatial extent (au):  <R**2>=            146.8271
 Charge=              0.0000 electrons
 Dipole moment (field-independent basis, Debye):
    X=              0.0041    Y=             -0.0134    Z=             -0.0019  Tot=              0.0141
 Quadrupole moment (field-independent basis, Debye-Ang):
   XX=            -15.0235   YY=            -15.0197   ZZ=            -15.8708
   XY=             -0.0007   XZ=              0.0057   YZ=             -0.0048
 Traceless Quadrupole moment (field-independent basis, Debye-Ang):
   XX=              0.2811   YY=              0.2850   ZZ=             -0.5661
   XY=             -0.0007   XZ=              0.0057   YZ=             -0.0048
 Octapole moment (field-independent basis, Debye-Ang**2):
  XXX=              0.0102  YYY=             -0.1042  ZZZ=            -36.2493  XYY=              0.0092
  XXY=             -0.0365  XXZ=            -11.4265  XZZ=              0.0060  YZZ=             -0.0704
  YYZ=            -11.4308  XYZ=              0.0041
 Hexadecapole moment (field-independent basis, Debye-Ang**3):
 XXXX=            -31.1773 YYYY=            -31.1919 ZZZZ=           -152.9572 XXXY=             -0.0087
 XXXZ=             -1.2478 YYYX=             -0.0095 YYYZ=             -0.0941 ZZZX=              0.0164
 ZZZY=             -0.1516 XXYY=            -10.3966 XXZZ=            -29.1876 YYZZ=            -29.1848
 XXYZ=             -0.0306 YYXZ=              1.2627 ZZXY=              0.0116
 N-N= 4.232508088024D+01 E-N=-2.684216053764D+02  KE= 7.901816276973D+01
 No NMR shielding tensors so no spin-rotation constants.
 Leave Link  601 at Thu May 27 13:55:25 2021, MaxMem=   13107200 cpu:       0.0
 (Enter /programs/64bit/g09/g09-gfortran/bin/l701.exe)
 Compute integral first derivatives.
 ... and contract with generalized density number  0.
 Leave Link  701 at Thu May 27 13:55:25 2021, MaxMem=   13107200 cpu:       0.0
 (Enter /programs/64bit/g09/g09-gfortran/bin/l702.exe)
 L702 exits ... SP integral derivatives will be done elsewhere.
 Leave Link  702 at Thu May 27 13:55:25 2021, MaxMem=   13107200 cpu:       0.0
 (Enter /programs/64bit/g09/g09-gfortran/bin/l703.exe)
 Compute integral first derivatives, UseDBF=F ICtDFT=           0.
 Integral derivatives from FoFDir, PRISM(SPDF).
 Calling FoFJK, ICntrl=      2127 FMM=F ISym2X=0 I1Cent= 0 IOpClX= 0 NMat=1 NMatS=1 NMatT=0.
 FoFCou: FMM=F IPFlag=           0 FMFlag=      100000 FMFlg1=         800
         NFxFlg=           0 DoJE=F BraDBF=F KetDBF=F FulRan=T
         Omega=  0.000000  0.000000  1.000000  0.000000  0.000000 ICntrl=    2127 IOpCl=  0
         NMat0=    1 NMatS0=    1 NMatT0=    0 NMatD0=    1 NMtDS0=    0 NMtDT0=    0
         I1Cent=           0 NGrid=           0.
 Symmetry not used in FoFCou.
 Leave Link  703 at Thu May 27 13:55:26 2021, MaxMem=   13107200 cpu:       1.1
 (Enter /programs/64bit/g09/g09-gfortran/bin/l716.exe)
 Dipole        = 1.59896993D-03-5.25747533D-03-7.41030979D-04
 -------------------------------------------------------------------
 Center     Atomic                   Forces (Hartrees/Bohr)
 Number     Number              X              Y              Z
 -------------------------------------------------------------------
      1        6          -0.001085035    0.005068706   -0.000922128
      2        6          -0.001320637    0.005802360    0.000829062
      3        1           0.002893721    0.000254739   -0.002717262
      4        1          -0.002342105   -0.003624548   -0.002622677
      5        1           0.000773803   -0.001288309   -0.001131564
      6        1          -0.000547136    0.000222133    0.001915326
      7        1           0.002794272   -0.004620152    0.003749788
      8        1          -0.001166882   -0.001814928    0.000899455
 -------------------------------------------------------------------
 Cartesian Forces:  Max     0.005802360 RMS     0.002593075
 -----------------------------------------------------------------------------------------------
                       Internal Coordinate Forces (Hartree/Bohr or radian)
  Cent   Atom   N1       Length/X         N2         Alpha/Y        N3         Beta/Z          J
 -----------------------------------------------------------------------------------------------
      1  C 
      2  C        1   0.007394(     1)
      3  H        1   0.003669(     2)      2   0.003120(     8)
      4  H        1   0.004967(     3)      2   0.001816(     9)      3   0.000414(    14)     0
      5  H        1  -0.001004(     4)      2   0.003298(    10)      3   0.000058(    15)     0
      6  H        2   0.001193(     5)      1   0.003297(    11)      3  -0.000018(    16)     0
      7  H        2   0.006379(     6)      1   0.003248(    12)      6   0.000211(    17)     0
      8  H        2  -0.001697(     7)      1   0.003330(    13)      6   0.000200(    18)     0
 -----------------------------------------------------------------------------------------------
 Internal  Forces:  Max     0.007393631 RMS     0.003295587
 Force constants in Cartesian coordinates: 
                1             2             3             4             5 
      1  0.653879D+00
      2  0.333154D-02  0.652325D+00
      3 -0.826133D-04  0.421751D-02  0.643216D+00
      4 -0.922556D-01 -0.721968D-04 -0.146154D-03  0.651704D+00
      5 -0.722548D-04 -0.924146D-01  0.955414D-04 -0.455301D-02  0.653448D+00
      6  0.473108D-04 -0.236937D-03 -0.301550D+00  0.445629D-03 -0.400439D-02
      7 -0.309750D+00 -0.644602D-04  0.888801D-01  0.961290D-02 -0.146877D-05
      8  0.584060D-04 -0.774787D-01 -0.213446D-03  0.983911D-05  0.136496D-02
      9  0.101156D+00 -0.170016D-03 -0.113679D+00  0.253543D-01 -0.387393D-05
     10 -0.135845D+00 -0.100506D+00 -0.455130D-01  0.352884D-02  0.365517D-02
     11 -0.100733D+00 -0.252306D+00 -0.789650D-01  0.364578D-02  0.773169D-02
     12 -0.517536D-01 -0.895978D-01 -0.116001D+00 -0.126653D-01 -0.219335D-01
     13 -0.132493D+00  0.973685D-01 -0.431383D-01  0.337997D-02 -0.354136D-02
     14  0.974723D-01 -0.246588D+00  0.748654D-01 -0.354330D-02  0.751585D-02
     15 -0.493202D-01  0.855503D-01 -0.111986D+00 -0.125429D-01  0.218418D-01
     16  0.961628D-02  0.000000D+00  0.000000D+00 -0.305768D+00  0.272523D-04
     17 -0.174605D-04  0.136327D-02  0.000000D+00 -0.274396D-03 -0.773335D-01
     18  0.252551D-01  0.000000D+00  0.000000D+00  0.100069D+00  0.715510D-04
     19  0.346689D-02 -0.359967D-02  0.000000D+00 -0.137144D+00  0.101967D+00
     20 -0.359144D-02  0.760956D-02  0.000000D+00  0.102062D+00 -0.255018D+00
     21 -0.127194D-01  0.220315D-01  0.000000D+00 -0.513514D-01  0.890152D-01
     22  0.338207D-02  0.354257D-02  0.000000D+00 -0.133059D+00 -0.974812D-01
     23  0.355191D-02  0.748902D-02  0.000000D+00 -0.972748D-01 -0.245294D+00
     24 -0.125830D-01 -0.217948D-01  0.000000D+00 -0.491637D-01 -0.850823D-01
                6             7             8             9            10 
      6  0.640796D+00
      7  0.000000D+00  0.311750D+00
      8  0.000000D+00  0.496375D-04  0.589526D-01
      9  0.000000D+00 -0.958833D-01  0.130920D-03  0.952081D-01
     10  0.000000D+00 -0.587220D-02 -0.268954D-01 -0.154881D-01  0.122492D+00
     11  0.000000D+00  0.179939D-02  0.854897D-02  0.474595D-02  0.109581D+00
     12  0.000000D+00  0.354562D-02  0.155540D-01  0.935168D-02  0.492175D-01
     13  0.000000D+00 -0.573999D-02  0.267908D-01 -0.151394D-01  0.157080D-01
     14  0.000000D+00 -0.178310D-02  0.861375D-02 -0.470298D-02  0.141675D-01
     15  0.000000D+00  0.345759D-02 -0.154715D-01  0.911949D-02  0.117836D-01
     16  0.879479D-01  0.000000D+00  0.000000D+00  0.000000D+00  0.000000D+00
     17  0.187258D-03  0.000000D+00  0.126926D-02  0.000000D+00  0.110482D-02
     18 -0.112894D+00  0.000000D+00  0.000000D+00  0.000000D+00  0.000000D+00
     19 -0.452827D-01  0.000000D+00 -0.110725D-02  0.000000D+00 -0.963795D-03
     20  0.785793D-01  0.000000D+00 -0.639271D-03  0.000000D+00 -0.556448D-03
     21 -0.114875D+00  0.000000D+00  0.000000D+00  0.000000D+00  0.000000D+00
     22 -0.431581D-01  0.000000D+00  0.109401D-02  0.000000D+00  0.952269D-03
     23 -0.745252D-01  0.000000D+00 -0.631624D-03  0.000000D+00 -0.549792D-03
     24 -0.111476D+00  0.000000D+00  0.000000D+00  0.000000D+00  0.000000D+00
               11            12            13            14            15 
     11  0.249036D+00
     12  0.852086D-01  0.973202D-01
     13 -0.142994D-01  0.116558D-01  0.119133D+00
     14 -0.130119D-01  0.107686D-01 -0.106320D+00  0.243470D+00
     15 -0.109896D-01  0.932911D-02  0.466219D-01 -0.809310D-01  0.935369D-01
     16  0.000000D+00  0.000000D+00  0.000000D+00  0.000000D+00  0.000000D+00
     17 -0.637882D-03  0.000000D+00 -0.109356D-02 -0.627683D-03  0.000000D+00
     18  0.000000D+00  0.000000D+00  0.000000D+00  0.000000D+00  0.000000D+00
     19  0.556459D-03  0.000000D+00  0.953974D-03  0.547562D-03  0.000000D+00
     20  0.321272D-03  0.000000D+00  0.550778D-03  0.316136D-03  0.000000D+00
     21  0.000000D+00  0.000000D+00  0.000000D+00  0.000000D+00  0.000000D+00
     22 -0.549805D-03  0.000000D+00 -0.942565D-03 -0.541014D-03  0.000000D+00
     23  0.317430D-03  0.000000D+00  0.544190D-03  0.312354D-03  0.000000D+00
     24  0.000000D+00  0.000000D+00  0.000000D+00  0.000000D+00  0.000000D+00
               16            17            18            19            20 
     16  0.307714D+00
     17 -0.920675D-05  0.587002D-01
     18 -0.949589D-01 -0.241567D-04  0.944814D-01
     19 -0.582228D-02  0.268996D-01 -0.152910D-01  0.123631D+00
     20 -0.180926D-02  0.866345D-02 -0.475164D-02 -0.110966D+00  0.251742D+00
     21  0.353000D-02 -0.156167D-01  0.927078D-02  0.488451D-01 -0.846488D-01
     22 -0.573992D-02 -0.266098D-01 -0.150747D-01  0.158780D-01  0.143101D-01
     23  0.179111D-02  0.860288D-02  0.470397D-02 -0.142979D-01 -0.129957D-01
     24  0.348108D-02  0.154536D-01  0.914232D-02  0.117285D-01  0.108211D-01
               21            22            23            24 
     21  0.963952D-01
     22  0.116957D-01  0.119529D+00
     23 -0.107812D-01  0.106235D+00  0.242200D+00
     24  0.920941D-02  0.465371D-01  0.806025D-01  0.931244D-01
 Force constants in internal coordinates: 
                1             2             3             4             5 
      1  0.301550D+00
      2  0.000000D+00  0.348103D+00
      3  0.000000D+00  0.000000D+00  0.350539D+00
      4  0.000000D+00  0.000000D+00  0.000000D+00  0.339875D+00
      5  0.000000D+00  0.000000D+00  0.000000D+00  0.000000D+00  0.343871D+00
      6  0.000000D+00  0.000000D+00  0.000000D+00  0.000000D+00  0.000000D+00
      7  0.000000D+00  0.000000D+00  0.000000D+00  0.000000D+00  0.000000D+00
      8  0.000000D+00  0.000000D+00  0.000000D+00  0.000000D+00  0.000000D+00
      9  0.000000D+00  0.000000D+00  0.000000D+00  0.000000D+00  0.000000D+00
     10  0.000000D+00  0.000000D+00  0.000000D+00  0.000000D+00  0.000000D+00
     11  0.000000D+00  0.000000D+00  0.000000D+00  0.000000D+00  0.000000D+00
     12  0.000000D+00  0.000000D+00  0.000000D+00  0.000000D+00  0.000000D+00
     13  0.000000D+00  0.000000D+00  0.000000D+00  0.000000D+00  0.000000D+00
     14  0.000000D+00  0.000000D+00  0.000000D+00  0.000000D+00  0.000000D+00
     15  0.000000D+00  0.000000D+00  0.000000D+00  0.000000D+00  0.000000D+00
     16  0.000000D+00  0.000000D+00  0.000000D+00  0.000000D+00  0.000000D+00
     17  0.000000D+00  0.000000D+00  0.000000D+00  0.000000D+00  0.000000D+00
     18  0.000000D+00  0.000000D+00  0.000000D+00  0.000000D+00  0.000000D+00
                6             7             8             9            10 
      6  0.353031D+00
      7  0.000000D+00  0.338795D+00
      8  0.000000D+00  0.000000D+00  0.249717D+00
      9  0.000000D+00  0.000000D+00  0.454386D-01  0.249713D+00
     10  0.000000D+00  0.000000D+00  0.445494D-01  0.456299D-01  0.249904D+00
     11  0.000000D+00  0.000000D+00  0.000000D+00  0.000000D+00  0.000000D+00
     12  0.000000D+00  0.000000D+00  0.000000D+00  0.000000D+00  0.000000D+00
     13  0.000000D+00  0.000000D+00  0.000000D+00  0.000000D+00  0.000000D+00
     14  0.000000D+00  0.000000D+00 -0.666390D-01  0.776533D-04  0.667148D-01
     15  0.000000D+00  0.000000D+00  0.660798D-01 -0.661538D-01 -0.630791D-03
     16  0.000000D+00  0.000000D+00  0.000000D+00  0.000000D+00  0.000000D+00
     17  0.000000D+00  0.000000D+00  0.000000D+00  0.000000D+00  0.000000D+00
     18  0.000000D+00  0.000000D+00  0.000000D+00  0.000000D+00  0.000000D+00
               11            12            13            14            15 
     11  0.249146D+00
     12  0.450165D-01  0.249146D+00
     13  0.448715D-01  0.448743D-01  0.249222D+00
     14  0.000000D+00  0.000000D+00  0.000000D+00  0.217493D+00
     15  0.000000D+00  0.000000D+00  0.000000D+00 -0.101597D+00  0.218552D+00
     16 -0.139873D-05  0.000000D+00  0.000000D+00  0.141659D-01  0.141659D-01
     17 -0.662327D-01 -0.983515D-04  0.662489D-01  0.472197D-02  0.472197D-02
     18  0.661281D-01 -0.661292D-01 -0.484354D-05  0.472197D-02  0.472197D-02
               16            17            18 
     16  0.424977D-01
     17  0.141623D-01  0.218994D+00
     18  0.141703D-01 -0.102506D+00  0.219186D+00
 Leave Link  716 at Thu May 27 13:55:26 2021, MaxMem=   13107200 cpu:       0.0
 (Enter /programs/64bit/g09/g09-gfortran/bin/l103.exe)

 GradGradGradGradGradGradGradGradGradGradGradGradGradGradGradGradGradGrad
 Berny optimization.
 Search for a local minimum.
 Step number   1 out of a maximum of    2
 All quantities printed in internal units (Hartrees-Bohrs-Radians)
 Second derivative matrix not updated -- first step.
 The second derivative matrix:
                          d1        a1        t1        d2        a2
           d1           0.30155
           a1           0.00000   0.24972
           t1          -0.00000  -0.06664   0.21749
           d2           0.00000  -0.00000   0.00000   0.34810
           a2          -0.00000   0.04544   0.00008   0.00000   0.24971
           t2          -0.00000   0.06608  -0.10160   0.00000  -0.06615
           d3           0.00000   0.00000  -0.00000   0.00000  -0.00000
           d4          -0.00000   0.00000   0.00000  -0.00000   0.00000
           a3           0.00000   0.04455   0.06671  -0.00000   0.04563
           d5          -0.00000   0.00000  -0.00000   0.00000  -0.00000
           a4           0.00000   0.00000   0.00000   0.00000  -0.00000
           t3           0.00000   0.00000   0.01417   0.00000  -0.00000
           d6          -0.00000   0.00000   0.00000   0.00000   0.00000
           a5           0.00000   0.00000  -0.00000   0.00000  -0.00000
           t4           0.00000   0.00000   0.00472   0.00000   0.00000
           d7           0.00000   0.00000  -0.00000   0.00000   0.00000
           a6           0.00000   0.00000   0.00000   0.00000  -0.00000
           t5           0.00000   0.00000   0.00472   0.00000  -0.00000
                          t2        d3        d4        a3        d5
           t2           0.21855
           d3          -0.00000   0.35054
           d4           0.00000   0.00000   0.33988
           a3          -0.00063   0.00000   0.00000   0.24990
           d5          -0.00000  -0.00000  -0.00000   0.00000   0.34387
           a4           0.00000   0.00000   0.00000  -0.00000  -0.00000
           t3           0.01417   0.00000   0.00000  -0.00000  -0.00000
           d6           0.00000  -0.00000  -0.00000   0.00000   0.00000
           a5          -0.00000   0.00000   0.00000  -0.00000   0.00000
           t4           0.00472  -0.00000   0.00000  -0.00000   0.00000
           d7          -0.00000  -0.00000  -0.00000   0.00000  -0.00000
           a6           0.00000   0.00000   0.00000  -0.00000  -0.00000
           t5           0.00472   0.00000   0.00000  -0.00000  -0.00000
                          a4        t3        d6        a5        t4
           a4           0.24915
           t3          -0.00000   0.04250
           d6           0.00000   0.00000   0.35303
           a5           0.04502   0.00000  -0.00000   0.24915
           t4          -0.06623   0.01416   0.00000  -0.00010   0.21899
           d7          -0.00000   0.00000   0.00000  -0.00000   0.00000
           a6           0.04487   0.00000   0.00000   0.04487   0.06625
           t5           0.06613   0.01417  -0.00000  -0.06613  -0.10251
                          d7        a6        t5
           d7           0.33880
           a6           0.00000   0.24922
           t5           0.00000  -0.00000   0.21919
     Eigenvalues --- 1000.000001000.000001000.000001000.000001000.00000
     Eigenvalues --- 1000.000001000.000001000.000001000.000001000.00000
     Eigenvalues --- 1000.000001000.000001000.000001000.000001000.00000
     Eigenvalues --- 1000.000001000.000001000.00000
 Angle between quadratic step and forces=  90.00 degrees.
 Linear search not attempted -- first point.
 Variable       Old X    -DE/DX   Delta X   Delta X   Delta X     New X
                                 (Linear)    (Quad)   (Total)
    d1        2.87655   0.00739   0.00000   0.00000   0.00000   2.87655
    a1        1.93319   0.00312   0.00000   0.00000   0.00000   1.93319
    t1        2.09440   0.00041   0.00000   0.00000   0.00000   2.09440
    d2        2.05984   0.00367   0.00000   0.00000   0.00000   2.05984
    a2        1.94144   0.00182   0.00000   0.00000   0.00000   1.94144
    t2       -2.09186   0.00006   0.00000   0.00000   0.00000  -2.09186
    d3        2.05587   0.00497   0.00000   0.00000   0.00000   2.05587
    d4        2.07351  -0.00100   0.00000   0.00000   0.00000   2.07351
    a3        1.93320   0.00330   0.00000   0.00000   0.00000   1.93320
    d5        2.06682   0.00119   0.00000   0.00000   0.00000   2.06682
    a4        1.93461   0.00330   0.00000   0.00000   0.00000   1.93461
    t3        3.14159  -0.00002   0.00000   0.00000   0.00000   3.14159
    d6        2.05186   0.00638   0.00000   0.00000   0.00000   2.05186
    a5        1.93465   0.00325   0.00000   0.00000   0.00000   1.93465
    t4        2.09440   0.00021   0.00000   0.00000   0.00000   2.09440
    d7        2.07534  -0.00170   0.00000   0.00000   0.00000   2.07534
    a6        1.93294   0.00333   0.00000   0.00000   0.00000   1.93294
    t5       -2.09439   0.00020   0.00000   0.00000   0.00000  -2.09439
         Item               Value     Threshold  Converged?
 Maximum Force            0.000000     0.000450     YES
 RMS     Force            0.000000     0.000300     YES
 Maximum Displacement     0.000000     0.001800     YES
 RMS     Displacement     0.000000     0.001200     YES
 Predicted change in Energy=-0.000000D+00
 Optimization completed.
    -- Stationary point found.
                       ----------------------------
                       !   Optimized Parameters   !
                       ! (Angstroms and Degrees)  !
 ----------------------                            ----------------------
 !      Name          Value   Derivative information (Atomic Units)     !
 ------------------------------------------------------------------------
 !       d1          1.5222   -DE/DX =    0.0074                        !
 !       a1        110.7639   -DE/DX =    0.0031                        !
 !       t1        120.0005   -DE/DX =    0.0004                        !
 !       d2          1.09     -DE/DX =    0.0037                        !
 !       a2        111.2363   -DE/DX =    0.0018                        !
 !       t2       -119.855    -DE/DX =    0.0001                        !
 !       d3          1.0879   -DE/DX =    0.005                         !
 !       d4          1.0973   -DE/DX =   -0.001                         !
 !       a3        110.7642   -DE/DX =    0.0033                        !
 !       d5          1.0937   -DE/DX =    0.0012                        !
 !       a4        110.8451   -DE/DX =    0.0033                        !
 !       t3        180.0      -DE/DX =    0.0                           !
 !       d6          1.0858   -DE/DX =    0.0064                        !
 !       a5        110.8476   -DE/DX =    0.0032                        !
 !       t4        120.0      -DE/DX =    0.0002                        !
 !       d7          1.0982   -DE/DX =   -0.0017                        !
 !       a6        110.7492   -DE/DX =    0.0033                        !
 !       t5       -120.0      -DE/DX =    0.0002                        !
 ------------------------------------------------------------------------
 GradGradGradGradGradGradGradGradGradGradGradGradGradGradGradGradGradGrad

 Leave Link  103 at Thu May 27 13:55:26 2021, MaxMem=   13107200 cpu:       0.0
 (Enter /programs/64bit/g09/g09-gfortran/bin/l9999.exe)
 1\1\GINC-MOLMOD\Force\RB3LYP\6-31+G(d,p)\C2H6\OSPITE\27-May-2021\1\\#p
  b3lyp/6-31+g(d,p) force nosym\\c2h6 molecule\\0,1\C\C,1,d1\H,1,d2,2,a
 1\H,1,d3,2,a2,3,t1,0\H,1,d4,2,a3,3,t2,0\H,2,d5,1,a4,3,t3,0\H,2,d6,1,a5
 ,6,t4,0\H,2,d7,1,a6,6,t5,0\\d1=1.5222066\a1=110.7638532\t1=120.0005342
 \d2=1.09002017\a2=111.23628266\t2=-119.85496332\d3=1.08792195\d4=1.097
 25477\a3=110.76420855\d5=1.09371288\a4=110.84512924\t3=179.99999825\d6
 =1.08579564\a5=110.84756426\t4=120.0000466\d7=1.09822187\a6=110.749184
 61\t5=-119.99997793\\Version=EM64L-G09RevA.02\HF=-79.8413705\RMSD=1.77
 5e-09\RMSF=2.593e-03\Dipole=0.001599,-0.0052575,-0.000741\Quadrupole=0
 .2090219,0.2118742,-0.4208961,-0.0005166,0.0042521,-0.0035881\PG=C01 [
 X(C2H6)]\\@


 We find comfort among those who agree with us -- growth among those who don't.
 -- Frank A. Clark
 Job cpu time:  0 days  0 hours  0 minutes  6.8 seconds.
 File lengths (MBytes):  RWF=      5 Int=      0 D2E=      0 Chk=      1 Scr=      1
 Normal termination of Gaussian 09 at Thu May 27 13:55:26 2021.
