 Entering Gaussian System, Link 0=g09
 Input=c2h6_003.com
 Output=c2h6_003.log
 Initial command:
 /programs/64bit/g09/g09-gfortran/bin/l1.exe /data/scratch/Gau-16900.inp -scrdir=/data/scratch/
 Entering Link 1 = /programs/64bit/g09/g09-gfortran/bin/l1.exe PID=     16901.
  
 Copyright (c) 1988,1990,1992,1993,1995,1998,2003,2009, Gaussian, Inc.
                  All Rights Reserved.
  
 This is part of the Gaussian(R) 09 program.  It is based on
 the Gaussian(R) 03 system (copyright 2003, Gaussian, Inc.),
 the Gaussian(R) 98 system (copyright 1998, Gaussian, Inc.),
 the Gaussian(R) 94 system (copyright 1995, Gaussian, Inc.),
 the Gaussian 92(TM) system (copyright 1992, Gaussian, Inc.),
 the Gaussian 90(TM) system (copyright 1990, Gaussian, Inc.),
 the Gaussian 88(TM) system (copyright 1988, Gaussian, Inc.),
 the Gaussian 86(TM) system (copyright 1986, Carnegie Mellon
 University), and the Gaussian 82(TM) system (copyright 1983,
 Carnegie Mellon University). Gaussian is a federally registered
 trademark of Gaussian, Inc.
  
 This software contains proprietary and confidential information,
 including trade secrets, belonging to Gaussian, Inc.
  
 This software is provided under written license and may be
 used, copied, transmitted, or stored only in accord with that
 written license.
  
 The following legend is applicable only to US Government
 contracts under FAR:
  
                    RESTRICTED RIGHTS LEGEND
  
 Use, reproduction and disclosure by the US Government is
 subject to restrictions as set forth in subparagraphs (a)
 and (c) of the Commercial Computer Software - Restricted
 Rights clause in FAR 52.227-19.
  
 Gaussian, Inc.
 340 Quinnipiac St., Bldg. 40, Wallingford CT 06492
  
  
 ---------------------------------------------------------------
 Warning -- This program may not be used in any manner that
 competes with the business of Gaussian, Inc. or will provide
 assistance to any competitor of Gaussian, Inc.  The licensee
 of this program is prohibited from giving any competitor of
 Gaussian, Inc. access to this program.  By using this program,
 the user acknowledges that Gaussian, Inc. is engaged in the
 business of creating and licensing software in the field of
 computational chemistry and represents and warrants to the
 licensee that it is not a competitor of Gaussian, Inc. and that
 it will not use this program in any manner prohibited above.
 ---------------------------------------------------------------
  

 Cite this work as:
 Gaussian 09, Revision A.02,
 M. J. Frisch, G. W. Trucks, H. B. Schlegel, G. E. Scuseria, 
 M. A. Robb, J. R. Cheeseman, G. Scalmani, V. Barone, B. Mennucci, 
 G. A. Petersson, H. Nakatsuji, M. Caricato, X. Li, H. P. Hratchian, 
 A. F. Izmaylov, J. Bloino, G. Zheng, J. L. Sonnenberg, M. Hada, 
 M. Ehara, K. Toyota, R. Fukuda, J. Hasegawa, M. Ishida, T. Nakajima, 
 Y. Honda, O. Kitao, H. Nakai, T. Vreven, J. A. Montgomery, Jr., 
 J. E. Peralta, F. Ogliaro, M. Bearpark, J. J. Heyd, E. Brothers, 
 K. N. Kudin, V. N. Staroverov, R. Kobayashi, J. Normand, 
 K. Raghavachari, A. Rendell, J. C. Burant, S. S. Iyengar, J. Tomasi, 
 M. Cossi, N. Rega, J. M. Millam, M. Klene, J. E. Knox, J. B. Cross, 
 V. Bakken, C. Adamo, J. Jaramillo, R. Gomperts, R. E. Stratmann, 
 O. Yazyev, A. J. Austin, R. Cammi, C. Pomelli, J. W. Ochterski, 
 R. L. Martin, K. Morokuma, V. G. Zakrzewski, G. A. Voth, 
 P. Salvador, J. J. Dannenberg, S. Dapprich, A. D. Daniels, 
 O. Farkas, J. B. Foresman, J. V. Ortiz, J. Cioslowski, 
 and D. J. Fox, Gaussian, Inc., Wallingford CT, 2009.
 
 ******************************************
 Gaussian 09:  EM64L-G09RevA.02 11-Jun-2009
                27-May-2021 
 ******************************************
 %chk=c2h6_003.chk
 %mem=100MB
 --------------------------------
 #p b3lyp/6-31+g(d,p) force nosym
 --------------------------------
 1/10=7,30=1,38=1/1,3;
 2/12=2,15=1,17=6,18=5,40=1/2;
 3/5=1,6=6,7=111,11=2,16=1,25=1,30=1,71=1,74=-5/1,2,3;
 4//1;
 5/5=2,38=5/2;
 6/7=2,8=2,9=2,10=2,28=1/1;
 7/29=1,30=1/1,2,3,16;
 1/10=7,30=1/3;
 99//99;
 Leave Link    1 at Thu May 27 13:49:44 2021, MaxMem=   13107200 cpu:       0.0
 (Enter /programs/64bit/g09/g09-gfortran/bin/l101.exe)
 -------------
 c2h6 molecule
 -------------
 Symbolic Z-matrix:
 Charge =  0 Multiplicity = 1
 C1
 C2                   1    d1
 H3                   1    d2       2    a1
 H4                   1    d3       2    a2       3    t1       0
 H5                   1    d4       2    a3       3    t2       0
 H6                   2    d5       1    a4       3    t3       0
 H7                   2    d6       1    a5       6    t4       0
 H8                   2    d7       1    a6       6    t5       0
       Variables:
       Constants:
  d1                    3.59138                  
  a1                  109.00069                  
  t1                  120.00002                  
  d2                    1.08688                  
  a2                  110.00051                  
  t2                 -119.99999                  
  d3                    1.08628                  
  d4                    1.08564                  
  a3                  109.00062                  
  d5                    1.0865                   
  a4                  109.00071                  
  t3                  180.                       
  d6                    1.08553                  
  a5                  109.00063                  
  t4                  120.00002                  
  d7                    1.08545                  
  a6                  109.00063                  
  t5                 -120.00001                  
 
 NAtoms=      8 NQM=      8 NQMF=      0 NMic=      0 NMicF=      0 NTot=      8.
                    Isotopes and Nuclear Properties:
 (Nuclear quadrupole moments (NQMom) in fm**2, nuclear magnetic moments (NMagM)
  in nuclear magnetons)

  Atom         1           2           3           4           5           6           7           8
 IAtWgt=          12          12           1           1           1           1           1           1
 AtmWgt=  12.0000000  12.0000000   1.0078250   1.0078250   1.0078250   1.0078250   1.0078250   1.0078250
 NucSpn=           0           0           1           1           1           1           1           1
 AtZEff=   0.0000000   0.0000000   0.0000000   0.0000000   0.0000000   0.0000000   0.0000000   0.0000000
 NQMom=    0.0000000   0.0000000   0.0000000   0.0000000   0.0000000   0.0000000   0.0000000   0.0000000
 NMagM=    0.0000000   0.0000000   2.7928460   2.7928460   2.7928460   2.7928460   2.7928460   2.7928460
 Leave Link  101 at Thu May 27 13:49:44 2021, MaxMem=   13107200 cpu:       0.0
 (Enter /programs/64bit/g09/g09-gfortran/bin/l103.exe)

 GradGradGradGradGradGradGradGradGradGradGradGradGradGradGradGradGradGrad
 Berny optimization.
 Initialization pass.
                       ----------------------------
                       !    Initial Parameters    !
                       ! (Angstroms and Degrees)  !
 ----------------------                            ----------------------
 !      Name          Value   Derivative information (Atomic Units)     !
 ------------------------------------------------------------------------
 !       d1          3.5914   Frozen                                    !
 !       a1        109.0007   Frozen                                    !
 !       t1        120.0      Frozen                                    !
 !       d2          1.0869   Frozen                                    !
 !       a2        110.0005   Frozen                                    !
 !       t2       -120.0      Frozen                                    !
 !       d3          1.0863   Frozen                                    !
 !       d4          1.0856   Frozen                                    !
 !       a3        109.0006   Frozen                                    !
 !       d5          1.0865   Frozen                                    !
 !       a4        109.0007   Frozen                                    !
 !       t3        180.0      Frozen                                    !
 !       d6          1.0855   Frozen                                    !
 !       a5        109.0006   Frozen                                    !
 !       t4        120.0      Frozen                                    !
 !       d7          1.0854   Frozen                                    !
 !       a6        109.0006   Frozen                                    !
 !       t5       -120.0      Frozen                                    !
 ------------------------------------------------------------------------
 Trust Radius=3.00D-01 FncErr=1.00D-07 GrdErr=1.00D-07
 Number of steps in this run=   2 maximum allowed number of steps=   2.
 GradGradGradGradGradGradGradGradGradGradGradGradGradGradGradGradGradGrad

 Leave Link  103 at Thu May 27 13:49:44 2021, MaxMem=   13107200 cpu:       0.0
 (Enter /programs/64bit/g09/g09-gfortran/bin/l202.exe)
                          Input orientation:                          
 ---------------------------------------------------------------------
 Center     Atomic      Atomic             Coordinates (Angstroms)
 Number     Number       Type             X           Y           Z
 ---------------------------------------------------------------------
      1          6           0        0.000000    0.000000    0.000000
      2          6           0        0.000000    0.000000    3.591379
      3          1           0        1.027662    0.000000   -0.353866
      4          1           0       -0.510385   -0.884011   -0.371540
      5          1           0       -0.513243    0.888964   -0.353460
      6          1           0       -1.027304    0.000000    3.945122
      7          1           0        0.513191   -0.888873    3.944803
      8          1           0        0.513154    0.888809    3.944778
 ---------------------------------------------------------------------
                    Distance matrix (angstroms):
                    1          2          3          4          5
     1  C    0.000000
     2  C    3.591379   0.000000
     3  H    1.086881   4.076892   0.000000
     4  H    1.086283   4.092272   1.774084   0.000000
     5  H    1.085638   4.076203   1.778945   1.773070   0.000000
     6  H    4.076683   1.086503   4.764891   4.436468   4.419539
     7  H    4.076142   1.085527   4.419653   4.436050   4.763333
     8  H    4.076099   1.085449   4.419620   4.777145   4.419088
                    6          7          8
     6  H    0.000000
     7  H    1.778545   0.000000
     8  H    1.778481   1.777682   0.000000
 Symmetry turned off by external request.
 Stoichiometry    C2H6
 Framework group  C1[X(C2H6)]
 Deg. of freedom    18
 Full point group                 C1      NOp   1
 Rotational constants (GHZ):     79.4213956      4.6547201      4.6540936
 Leave Link  202 at Thu May 27 13:49:44 2021, MaxMem=   13107200 cpu:       0.0
 (Enter /programs/64bit/g09/g09-gfortran/bin/l301.exe)
 Standard basis: 6-31+G(d,p) (6D, 7F)
 Ernie: Thresh=  0.10000D-02 Tol=  0.10000D-05 Strict=F.
 Integral buffers will be    131072 words long.
 Raffenetti 2 integral format.
 Two-electron integral symmetry is turned off.
    68 basis functions,   106 primitive gaussians,    68 cartesian basis functions
     9 alpha electrons        9 beta electrons
       nuclear repulsion energy        30.3532227935 Hartrees.
 IExCor=  402 DFT=T Ex+Corr=B3LYP ExCW=0 ScaHFX=  0.200000
 ScaDFX=  0.800000  0.720000  1.000000  0.810000 ScalE2=  1.000000  1.000000
 IRadAn=      0 IRanWt=     -1 IRanGd=            0 ICorTp=0
 NAtoms=    8 NActive=    8 NUniq=    8 SFac= 7.50D-01 NAtFMM=   80 NAOKFM=F Big=F
 Leave Link  301 at Thu May 27 13:49:44 2021, MaxMem=   13107200 cpu:       0.0
 (Enter /programs/64bit/g09/g09-gfortran/bin/l302.exe)
 NPDir=0 NMtPBC=     1 NCelOv=     1 NCel=       1 NClECP=     1 NCelD=      1
         NCelK=      1 NCelE2=     1 NClLst=     1 CellRange=     0.0.
 One-electron integrals computed using PRISM.
 NBasis=    68 RedAO= T  NBF=    68
 NBsUse=    68 1.00D-06 NBFU=    68
 Precomputing XC quadrature grid using
 IXCGrd= 2 IRadAn=           0 IRanWt=          -1 IRanGd=           0 AccXCQ= 1.00D-10.
 NRdTot=     518 NPtTot=       65100 NUsed=       68843 NTot=       68875
 NSgBfM=    68    68    68    68    68 NAtAll=     8     8.
 Leave Link  302 at Thu May 27 13:49:45 2021, MaxMem=   13107200 cpu:       0.1
 (Enter /programs/64bit/g09/g09-gfortran/bin/l303.exe)
 DipDrv:  MaxL=1.
 Leave Link  303 at Thu May 27 13:49:45 2021, MaxMem=   13107200 cpu:       0.0
 (Enter /programs/64bit/g09/g09-gfortran/bin/l401.exe)
 Harris functional with IExCor=  402 diagonalized for initial guess.
 ExpMin= 4.38D-02 ExpMax= 3.05D+03 ExpMxC= 4.57D+02 IAcc=2 IRadAn=         0 AccDes= 0.00D+00
 HarFok:  IExCor=  402 AccDes= 0.00D+00 IRadAn=         0 IDoV= 1
 ScaDFX=  1.000000  1.000000  1.000000  1.000000
 FoFCou: FMM=F IPFlag=           0 FMFlag=      100000 FMFlg1=           0
         NFxFlg=           0 DoJE=T BraDBF=F KetDBF=T FulRan=T
         Omega=  0.000000  0.000000  1.000000  0.000000  0.000000 ICntrl=     500 IOpCl=  0
         NMat0=    1 NMatS0=    1 NMatT0=    0 NMatD0=    1 NMtDS0=    0 NMtDT0=    0
         I1Cent=           4 NGrid=           0.
 Symmetry not used in FoFCou.
 Harris En= -79.6866546826627    
 Leave Link  401 at Thu May 27 13:49:46 2021, MaxMem=   13107200 cpu:       0.9
 (Enter /programs/64bit/g09/g09-gfortran/bin/l502.exe)
 Closed shell SCF:
 Requested convergence on RMS density matrix=1.00D-08 within 128 cycles.
 Requested convergence on MAX density matrix=1.00D-06.
 Requested convergence on             energy=1.00D-06.
 No special actions if energy rises.
 Using DIIS extrapolation, IDIIS=  1040.
 Two-electron integral symmetry not used.
        68758 words used for storage of precomputed grid.
 Keep R1 ints in memory in canonical form, NReq=3743143.
 IEnd=      101608 IEndB=      101608 NGot=    13107200 MDV=    10273866
 LenX=    10273866 LenY=    10268801
 Symmetry not used in FoFDir.
 MinBra= 0 MaxBra= 2 Meth= 1.
 IRaf=       0 NMat=   1 IRICut=       1 DoRegI=T DoRafI=F ISym2E= 0 JSym2E=0.

 Cycle   1  Pass 1  IDiag  1:
 E= -79.5478413098116    
 DIIS: error= 3.23D-02 at cycle   1 NSaved=   1.
 NSaved= 1 IEnMin= 1 EnMin= -79.5478413098116     IErMin= 1 ErrMin= 3.23D-02
 ErrMax= 3.23D-02 EMaxC= 1.00D-01 BMatC= 7.10D-02 BMatP= 7.10D-02
 IDIUse=3 WtCom= 6.77D-01 WtEn= 3.23D-01
 Coeff-Com:  0.100D+01
 Coeff-En:   0.100D+01
 Coeff:      0.100D+01
 Gap=     0.077 Goal=   None    Shift=    0.000
 GapD=    0.077 DampG=0.500 DampE=0.500 DampFc=0.2500 IDamp=-1.
 Damping current iteration by 2.50D-01
 RMSDP=6.96D-03 MaxDP=1.11D-01              OVMax= 2.38D-01

 Cycle   2  Pass 1  IDiag  1:
 E= -79.5801108656120     Delta-E=       -0.032269555800 Rises=F Damp=T
 DIIS: error= 1.56D-02 at cycle   2 NSaved=   2.
 NSaved= 2 IEnMin= 2 EnMin= -79.5801108656120     IErMin= 2 ErrMin= 1.56D-02
 ErrMax= 1.56D-02 EMaxC= 1.00D-01 BMatC= 1.75D-02 BMatP= 7.10D-02
 IDIUse=3 WtCom= 8.44D-01 WtEn= 1.56D-01
 Coeff-Com: -0.855D+00 0.185D+01
 Coeff-En:   0.000D+00 0.100D+01
 Coeff:     -0.722D+00 0.172D+01
 Gap=     0.072 Goal=   None    Shift=    0.000
 RMSDP=2.96D-03 MaxDP=7.77D-02 DE=-3.23D-02 OVMax= 2.38D-01

 Cycle   3  Pass 1  IDiag  1:
 E= -79.6039140142067     Delta-E=       -0.023803148595 Rises=F Damp=F
 DIIS: error= 3.19D-02 at cycle   3 NSaved=   3.
 NSaved= 3 IEnMin= 3 EnMin= -79.6039140142067     IErMin= 2 ErrMin= 1.56D-02
 ErrMax= 3.19D-02 EMaxC= 1.00D-01 BMatC= 1.89D-02 BMatP= 1.75D-02
 IDIUse=3 WtCom= 6.81D-01 WtEn= 3.19D-01
 Coeff-Com: -0.668D+00 0.145D+01 0.216D+00
 Coeff-En:   0.000D+00 0.225D+00 0.775D+00
 Coeff:     -0.455D+00 0.106D+01 0.394D+00
 Gap=     0.051 Goal=   None    Shift=    0.000
 RMSDP=5.87D-03 MaxDP=1.48D-01 DE=-2.38D-02 OVMax= 4.60D-01

 Cycle   4  Pass 1  IDiag  1:
 E= -79.5014140417133     Delta-E=        0.102499972493 Rises=F Damp=F
 DIIS: error= 5.59D-02 at cycle   4 NSaved=   4.
 NSaved= 4 IEnMin= 3 EnMin= -79.6039140142067     IErMin= 2 ErrMin= 1.56D-02
 ErrMax= 5.59D-02 EMaxC= 1.00D-01 BMatC= 7.30D-02 BMatP= 1.75D-02
 IDIUse=2 WtCom= 0.00D+00 WtEn= 1.00D+00
 Coeff-En:   0.000D+00 0.000D+00 0.696D+00 0.304D+00
 Coeff:      0.000D+00 0.000D+00 0.696D+00 0.304D+00
 Gap=     0.061 Goal=   None    Shift=    0.000
 RMSDP=3.01D-03 MaxDP=7.34D-02 DE= 1.02D-01 OVMax= 2.35D-01

 Cycle   5  Pass 1  IDiag  1:
 E= -79.6255754560546     Delta-E=       -0.124161414341 Rises=F Damp=F
 DIIS: error= 1.90D-02 at cycle   5 NSaved=   5.
 NSaved= 5 IEnMin= 5 EnMin= -79.6255754560546     IErMin= 2 ErrMin= 1.56D-02
 ErrMax= 1.90D-02 EMaxC= 1.00D-01 BMatC= 6.29D-03 BMatP= 1.75D-02
 IDIUse=3 WtCom= 8.10D-01 WtEn= 1.90D-01
 Coeff-Com: -0.113D-01 0.144D-01 0.309D+00-0.653D-01 0.753D+00
 Coeff-En:   0.000D+00 0.000D+00 0.345D+00 0.000D+00 0.655D+00
 Coeff:     -0.914D-02 0.117D-01 0.316D+00-0.529D-01 0.734D+00
 Gap=     0.069 Goal=   None    Shift=    0.000
 RMSDP=1.08D-03 MaxDP=2.72D-02 DE=-1.24D-01 OVMax= 8.49D-02

 Cycle   6  Pass 1  IDiag  1:
 E= -79.6360419451757     Delta-E=       -0.010466489121 Rises=F Damp=F
 DIIS: error= 6.51D-04 at cycle   6 NSaved=   6.
 NSaved= 6 IEnMin= 6 EnMin= -79.6360419451757     IErMin= 6 ErrMin= 6.51D-04
 ErrMax= 6.51D-04 EMaxC= 1.00D-01 BMatC= 1.06D-05 BMatP= 6.29D-03
 IDIUse=3 WtCom= 9.93D-01 WtEn= 6.51D-03
 Coeff-Com: -0.262D-02 0.366D-02 0.213D-01-0.567D-02 0.165D-01 0.967D+00
 Coeff-En:   0.000D+00 0.000D+00 0.000D+00 0.000D+00 0.000D+00 0.100D+01
 Coeff:     -0.260D-02 0.363D-02 0.212D-01-0.564D-02 0.164D-01 0.967D+00
 Gap=     0.070 Goal=   None    Shift=    0.000
 RMSDP=1.95D-05 MaxDP=2.68D-04 DE=-1.05D-02 OVMax= 1.16D-03

 Cycle   7  Pass 1  IDiag  1:
 E= -79.6360364678562     Delta-E=        0.000005477320 Rises=F Damp=F
 DIIS: error= 8.46D-04 at cycle   7 NSaved=   7.
 NSaved= 7 IEnMin= 6 EnMin= -79.6360419451757     IErMin= 6 ErrMin= 6.51D-04
 ErrMax= 8.46D-04 EMaxC= 1.00D-01 BMatC= 1.14D-05 BMatP= 1.06D-05
 IDIUse=3 WtCom= 9.93D-01 WtEn= 6.51D-03
 Rare condition: small coef for last iteration:  0.000D+00
 Coeff-Com:  0.178D-02-0.146D-02 0.704D-02-0.534D-03-0.289D-01 0.230D+00
 Coeff-Com:  0.792D+00
 Coeff-En:   0.000D+00 0.000D+00 0.000D+00 0.000D+00 0.000D+00 0.000D+00
 Coeff-En:   0.100D+01
 Coeff:      0.178D-02-0.146D-02 0.704D-02-0.534D-03-0.289D-01 0.230D+00
 Coeff:      0.792D+00
 Gap=     0.070 Goal=   None    Shift=    0.000
 RMSDP=4.30D-05 MaxDP=1.01D-03 DE= 5.48D-06 OVMax= 3.41D-03

 Cycle   8  Pass 1  IDiag  1:
 E= -79.6360558292608     Delta-E=       -0.000019361405 Rises=F Damp=F
 DIIS: error= 1.01D-04 at cycle   8 NSaved=   8.
 NSaved= 8 IEnMin= 8 EnMin= -79.6360558292608     IErMin= 8 ErrMin= 1.01D-04
 ErrMax= 1.01D-04 EMaxC= 1.00D-01 BMatC= 1.79D-07 BMatP= 1.06D-05
 IDIUse=3 WtCom= 9.99D-01 WtEn= 1.01D-03
 Coeff-Com:  0.118D-02-0.157D-02 0.176D-02 0.176D-03-0.849D-02 0.390D-01
 Coeff-Com:  0.120D+00 0.848D+00
 Coeff-En:   0.000D+00 0.000D+00 0.000D+00 0.000D+00 0.000D+00 0.000D+00
 Coeff-En:   0.000D+00 0.100D+01
 Coeff:      0.118D-02-0.157D-02 0.176D-02 0.176D-03-0.848D-02 0.390D-01
 Coeff:      0.120D+00 0.848D+00
 Gap=     0.070 Goal=   None    Shift=    0.000
 RMSDP=5.06D-06 MaxDP=1.17D-04 DE=-1.94D-05 OVMax= 3.85D-04

 Cycle   9  Pass 1  IDiag  1:
 E= -79.6360561159615     Delta-E=       -0.000000286701 Rises=F Damp=F
 DIIS: error= 1.64D-05 at cycle   9 NSaved=   9.
 NSaved= 9 IEnMin= 9 EnMin= -79.6360561159615     IErMin= 9 ErrMin= 1.64D-05
 ErrMax= 1.64D-05 EMaxC= 1.00D-01 BMatC= 4.32D-09 BMatP= 1.79D-07
 IDIUse=1 WtCom= 1.00D+00 WtEn= 0.00D+00
 Coeff-Com:  0.284D-04-0.256D-04-0.198D-04-0.536D-05 0.444D-04-0.895D-03
 Coeff-Com: -0.234D-01 0.293D-01 0.995D+00
 Coeff:      0.284D-04-0.256D-04-0.198D-04-0.536D-05 0.444D-04-0.895D-03
 Coeff:     -0.234D-01 0.293D-01 0.995D+00
 Gap=     0.070 Goal=   None    Shift=    0.000
 RMSDP=9.39D-07 MaxDP=2.25D-05 DE=-2.87D-07 OVMax= 7.47D-05

 Cycle  10  Pass 1  IDiag  1:
 E= -79.6360561233962     Delta-E=       -0.000000007435 Rises=F Damp=F
 DIIS: error= 9.60D-08 at cycle  10 NSaved=  10.
 NSaved=10 IEnMin=10 EnMin= -79.6360561233962     IErMin=10 ErrMin= 9.60D-08
 ErrMax= 9.60D-08 EMaxC= 1.00D-01 BMatC= 3.71D-13 BMatP= 4.32D-09
 IDIUse=1 WtCom= 1.00D+00 WtEn= 0.00D+00
 Coeff-Com:  0.488D-05-0.516D-05-0.336D-05-0.876D-06-0.106D-05 0.454D-04
 Coeff-Com: -0.191D-02 0.170D-02 0.788D-01 0.921D+00
 Coeff:      0.488D-05-0.516D-05-0.336D-05-0.876D-06-0.106D-05 0.454D-04
 Coeff:     -0.191D-02 0.170D-02 0.788D-01 0.921D+00
 Gap=     0.070 Goal=   None    Shift=    0.000
 RMSDP=6.13D-09 MaxDP=8.37D-08 DE=-7.43D-09 OVMax= 2.20D-07

 SCF Done:  E(RB3LYP) =  -79.6360561234     A.U. after   10 cycles
             Convg  =    0.6127D-08             -V/T =  2.0125
 KE= 7.865571435637D+01 PE=-2.437708103329D+02 EE= 5.512581705961D+01
 Leave Link  502 at Thu May 27 13:49:56 2021, MaxMem=   13107200 cpu:       8.6
 (Enter /programs/64bit/g09/g09-gfortran/bin/l601.exe)
 Copying SCF densities to generalized density rwf, IOpCl= 0 IROHF=0.

 **********************************************************************

            Population analysis using the SCF density.

 **********************************************************************

 Alpha  occ. eigenvalues --  -10.22408 -10.22317  -0.68698  -0.68444  -0.41179
 Alpha  occ. eigenvalues --   -0.41163  -0.41005  -0.40917  -0.21719
 Alpha virt. eigenvalues --   -0.14688   0.01388   0.03123   0.05533   0.05539
 Alpha virt. eigenvalues --    0.07987   0.07995   0.10897   0.12515   0.17961
 Alpha virt. eigenvalues --    0.18020   0.19958   0.19980   0.24866   0.31374
 Alpha virt. eigenvalues --    0.62711   0.62725   0.64525   0.64543   0.64802
 Alpha virt. eigenvalues --    0.73383   0.88940   0.90329   0.90443   0.92501
 Alpha virt. eigenvalues --    0.92535   0.92762   1.02182   1.08363   1.40192
 Alpha virt. eigenvalues --    1.40262   1.40266   1.40351   1.76447   1.77899
 Alpha virt. eigenvalues --    2.02732   2.02921   2.06231   2.06385   2.07250
 Alpha virt. eigenvalues --    2.07496   2.31168   2.31435   2.31992   2.32041
 Alpha virt. eigenvalues --    2.58847   2.61730   2.81304   2.81509   2.81885
 Alpha virt. eigenvalues --    2.82053   3.19833   3.22164   3.40265   3.40438
 Alpha virt. eigenvalues --    3.41497   3.41686   4.24995   4.29856
          Condensed to atoms (all electrons):
              1          2          3          4          5          6
     1  C    5.224865   0.122240   0.380793   0.380298   0.380850  -0.003406
     2  C    0.122240   5.221049  -0.003469  -0.003281  -0.003462   0.380917
     3  H    0.380793  -0.003469   0.531257  -0.033982  -0.033529   0.000005
     4  H    0.380298  -0.003281  -0.033982   0.532489  -0.034023   0.000009
     5  H    0.380850  -0.003462  -0.033529  -0.034023   0.531091   0.000009
     6  H   -0.003406   0.380917   0.000005   0.000009   0.000009   0.530154
     7  H   -0.003401   0.380963   0.000009   0.000009   0.000005  -0.033517
     8  H   -0.003396   0.380925   0.000009   0.000005   0.000009  -0.033546
              7          8
     1  C   -0.003401  -0.003396
     2  C    0.380963   0.380925
     3  H    0.000009   0.000009
     4  H    0.000009   0.000005
     5  H    0.000005   0.000009
     6  H   -0.033517  -0.033546
     7  H    0.530020  -0.033578
     8  H   -0.033578   0.530143
 Mulliken atomic charges:
              1
     1  C   -0.478843
     2  C   -0.475882
     3  H    0.158906
     4  H    0.158478
     5  H    0.159050
     6  H    0.159375
     7  H    0.159488
     8  H    0.159428
 Sum of Mulliken atomic charges =   0.00000
 Mulliken charges with hydrogens summed into heavy atoms:
              1
     1  C   -0.002410
     2  C    0.002410
 Sum of Mulliken charges with hydrogens summed into heavy atoms =   0.00000
 Electronic spatial extent (au):  <R**2>=            498.0808
 Charge=              0.0000 electrons
 Dipole moment (field-independent basis, Debye):
    X=              0.0047    Y=              0.0084    Z=              0.0275  Tot=              0.0291
 Quadrupole moment (field-independent basis, Debye-Ang):
   XX=            -15.5733   YY=            -15.5871   ZZ=            -10.6278
   XY=             -0.0105   XZ=              0.0122   YZ=              0.0190
 Traceless Quadrupole moment (field-independent basis, Debye-Ang):
   XX=             -1.6439   YY=             -1.6577   ZZ=              3.3016
   XY=             -0.0105   XZ=              0.0122   YZ=              0.0190
 Octapole moment (field-independent basis, Debye-Ang**2):
  XXX=             -0.0011  YYY=              0.0194  ZZZ=            -57.4559  XYY=              0.0146
  XXY=              0.0065  XXZ=            -27.9119  XZZ=              0.0016  YZZ=             -0.0048
  YYZ=            -27.9187  XYZ=             -0.0038
 Hexadecapole moment (field-independent basis, Debye-Ang**3):
 XXXX=            -33.0945 YYYY=            -33.0842 ZZZZ=           -565.3503 XXXY=             -0.0025
 XXXZ=             -2.9262 YYYX=             -0.0100 YYYZ=              0.0090 ZZZX=              0.0469
 ZZZY=              0.0152 XXYY=            -11.0346 XXZZ=           -110.4886 YYZZ=           -110.4929
 XXYZ=              0.0030 YYXZ=              2.9576 ZZXY=              0.0056
 N-N= 3.035322279348D+01 E-N=-2.437708127815D+02  KE= 7.865571435637D+01
 No NMR shielding tensors so no spin-rotation constants.
 Leave Link  601 at Thu May 27 13:49:56 2021, MaxMem=   13107200 cpu:       0.1
 (Enter /programs/64bit/g09/g09-gfortran/bin/l701.exe)
 Compute integral first derivatives.
 ... and contract with generalized density number  0.
 Leave Link  701 at Thu May 27 13:49:56 2021, MaxMem=   13107200 cpu:       0.1
 (Enter /programs/64bit/g09/g09-gfortran/bin/l702.exe)
 L702 exits ... SP integral derivatives will be done elsewhere.
 Leave Link  702 at Thu May 27 13:49:56 2021, MaxMem=   13107200 cpu:       0.0
 (Enter /programs/64bit/g09/g09-gfortran/bin/l703.exe)
 Compute integral first derivatives, UseDBF=F ICtDFT=           0.
 Integral derivatives from FoFDir, PRISM(SPDF).
 Calling FoFJK, ICntrl=      2127 FMM=F ISym2X=0 I1Cent= 0 IOpClX= 0 NMat=1 NMatS=1 NMatT=0.
 FoFCou: FMM=F IPFlag=           0 FMFlag=      100000 FMFlg1=         800
         NFxFlg=           0 DoJE=F BraDBF=F KetDBF=F FulRan=T
         Omega=  0.000000  0.000000  1.000000  0.000000  0.000000 ICntrl=    2127 IOpCl=  0
         NMat0=    1 NMatS0=    1 NMatT0=    0 NMatD0=    1 NMtDS0=    0 NMtDT0=    0
         I1Cent=           0 NGrid=           0.
 Symmetry not used in FoFCou.
 Leave Link  703 at Thu May 27 13:49:58 2021, MaxMem=   13107200 cpu:       1.7
 (Enter /programs/64bit/g09/g09-gfortran/bin/l716.exe)
 Dipole        = 1.84765760D-03 3.29718384D-03 1.08137196D-02
 -------------------------------------------------------------------
 Center     Atomic                   Forces (Hartrees/Bohr)
 Number     Number              X              Y              Z
 -------------------------------------------------------------------
      1        6           0.000611848   -0.000300571   -0.022482245
      2        6          -0.000679026   -0.000103823    0.021395607
      3        1           0.007908154    0.000312690    0.015128862
      4        1          -0.004415028   -0.007680126    0.015131357
      5        1          -0.004075879    0.007719119    0.014884920
      6        1          -0.007901034   -0.000005254   -0.014811314
      7        1           0.004255915   -0.007406341   -0.014618877
      8        1           0.004295050    0.007464307   -0.014628309
 -------------------------------------------------------------------
 Cartesian Forces:  Max     0.022482245 RMS     0.010640925
 -----------------------------------------------------------------------------------------------
                       Internal Coordinate Forces (Hartree/Bohr or radian)
  Cent   Atom   N1       Length/X         N2         Alpha/Y        N3         Beta/Z          J
 -----------------------------------------------------------------------------------------------
      1  C 
      2  C        1  -0.022663(     1)
      3  H        1   0.002552(     2)      2  -0.034668(     8)
      4  H        1   0.003149(     3)      2  -0.035408(     9)      3  -0.000032(    14)     0
      5  H        1   0.003401(     4)      2  -0.034700(    10)      3   0.000640(    15)     0
      6  H        2   0.002648(     5)      1  -0.034035(    11)      3   0.000001(    16)     0
      7  H        2   0.003317(     6)      1  -0.034060(    12)      6  -0.000034(    17)     0
      8  H        2   0.003380(     7)      1  -0.034122(    13)      6   0.000024(    18)     0
 -----------------------------------------------------------------------------------------------
 Internal  Forces:  Max     0.035407742 RMS     0.020701453
 Force constants in Cartesian coordinates: 
                1             2             3             4             5 
      1  0.606257D+00
      2 -0.145206D-02  0.605704D+00
      3  0.231278D-02  0.327067D-02  0.329931D+00
      4 -0.228171D-01 -0.705958D-04 -0.220336D-04  0.609410D+00
      5 -0.705964D-04 -0.229057D-01 -0.597712D-04  0.288598D-04  0.610325D+00
      6  0.101951D-04  0.000000D+00 -0.935472D-02  0.346731D-03  0.230546D-04
      7 -0.313991D+00 -0.829902D-04  0.847612D-01  0.374586D-02  0.000000D+00
      8 -0.270109D-03 -0.792314D-01 -0.169707D-03 -0.283161D-05  0.322926D-03
      9  0.109675D+00 -0.241012D-03 -0.105601D+00  0.108783D-01 -0.151061D-05
     10 -0.137327D+00 -0.100397D+00 -0.443059D-01  0.123816D-02  0.155919D-02
     11 -0.100364D+00 -0.253202D+00 -0.767037D-01  0.155873D-02  0.303777D-02
     12 -0.567287D-01 -0.982452D-01 -0.109092D+00 -0.540959D-02 -0.936970D-02
     13 -0.138221D+00  0.102003D+00 -0.427461D-01  0.118100D-02 -0.148658D-02
     14  0.102156D+00 -0.256466D+00  0.736625D-01 -0.148381D-02  0.289156D-02
     15 -0.552586D-01  0.952155D-01 -0.105883D+00 -0.544671D-02  0.943098D-02
     16  0.374689D-02  0.000000D+00  0.000000D+00 -0.314488D+00  0.000000D+00
     17 -0.593136D-05  0.321245D-03  0.000000D+00  0.496696D-05 -0.801908D-01
     18  0.108813D-01  0.000000D+00  0.000000D+00  0.109516D+00  0.000000D+00
     19  0.118073D-02 -0.149005D-02  0.000000D+00 -0.139124D+00  0.101875D+00
     20 -0.148352D-02  0.288998D-02  0.000000D+00  0.101843D+00 -0.256708D+00
     21 -0.544557D-02  0.943202D-02  0.000000D+00 -0.549253D-01  0.951231D-01
     22  0.117053D-02  0.149016D-02  0.000000D+00 -0.139146D+00 -0.101905D+00
     23  0.148956D-02  0.289019D-02  0.000000D+00 -0.101878D+00 -0.256773D+00
     24 -0.544596D-02 -0.943269D-02  0.000000D+00 -0.549379D-01 -0.951458D-01
                6             7             8             9            10 
      6  0.325073D+00
      7  0.000000D+00  0.320525D+00
      8  0.000000D+00  0.972887D-04  0.593694D-01
      9  0.000000D+00 -0.906991D-01  0.282536D-03  0.883571D-01
     10  0.000000D+00 -0.521765D-02 -0.276210D-01 -0.151526D-01  0.124210D+00
     11  0.000000D+00  0.174600D-02  0.956951D-02  0.507056D-02  0.111825D+00
     12  0.000000D+00  0.301320D-02  0.151741D-01  0.875061D-02  0.474771D-01
     13  0.000000D+00 -0.506222D-02  0.277966D-01 -0.147012D-01  0.170965D-01
     14  0.000000D+00 -0.175978D-02  0.997016D-02 -0.511057D-02  0.146345D-01
     15  0.000000D+00  0.292472D-02 -0.152869D-01  0.849366D-02  0.119813D-01
     16  0.850912D-01  0.000000D+00  0.000000D+00  0.000000D+00  0.000000D+00
     17 -0.111221D-05  0.000000D+00  0.610072D-03  0.000000D+00  0.531905D-03
     18 -0.105087D+00  0.000000D+00  0.000000D+00  0.000000D+00  0.000000D+00
     19 -0.427182D-01  0.000000D+00 -0.528812D-03  0.000000D+00 -0.461057D-03
     20  0.739599D-01  0.000000D+00 -0.305310D-03  0.000000D+00 -0.266192D-03
     21 -0.105307D+00  0.000000D+00  0.000000D+00  0.000000D+00  0.000000D+00
     22 -0.427299D-01  0.000000D+00  0.528850D-03  0.000000D+00  0.461090D-03
     23 -0.739825D-01  0.000000D+00 -0.305332D-03  0.000000D+00 -0.266211D-03
     24 -0.105324D+00  0.000000D+00  0.000000D+00  0.000000D+00  0.000000D+00
               11            12            13            14            15 
     11  0.253334D+00
     12  0.822325D-01  0.915809D-01
     13 -0.147662D-01  0.116480D-01  0.125005D+00
     14 -0.127397D-01  0.102082D-01 -0.113547D+00  0.256344D+00
     15 -0.105994D-01  0.876059D-02  0.457993D-01 -0.787602D-01  0.886287D-01
     16  0.000000D+00  0.000000D+00  0.000000D+00  0.000000D+00  0.000000D+00
     17 -0.307096D-03  0.000000D+00 -0.528942D-03 -0.305385D-03  0.000000D+00
     18  0.000000D+00  0.000000D+00  0.000000D+00  0.000000D+00  0.000000D+00
     19  0.266192D-03  0.000000D+00  0.458489D-03  0.264709D-03  0.000000D+00
     20  0.153686D-03  0.000000D+00  0.264709D-03  0.152830D-03  0.000000D+00
     21  0.000000D+00  0.000000D+00  0.000000D+00  0.000000D+00  0.000000D+00
     22 -0.266211D-03  0.000000D+00 -0.458522D-03 -0.264728D-03  0.000000D+00
     23  0.153697D-03  0.000000D+00  0.264728D-03  0.152841D-03  0.000000D+00
     24  0.000000D+00  0.000000D+00  0.000000D+00  0.000000D+00  0.000000D+00
               16            17            18            19            20 
     16  0.320874D+00
     17  0.000000D+00  0.599201D-01
     18 -0.909722D-01  0.000000D+00  0.880074D-01
     19 -0.506603D-02  0.278085D-01 -0.147122D-01  0.125499D+00
     20 -0.175574D-02  0.997558D-02 -0.509883D-02 -0.113399D+00  0.256440D+00
     21  0.294042D-02 -0.152906D-01  0.853927D-02  0.456470D-01 -0.790628D-01
     22 -0.506640D-02 -0.278105D-01 -0.147133D-01  0.175134D-01  0.147965D-01
     23  0.175587D-02  0.997629D-02  0.509920D-02 -0.147965D-01 -0.125991D-01
     24  0.294063D-02  0.152917D-01  0.853988D-02  0.117834D-01  0.102017D-01
               21            22            23            24 
     21  0.882201D-01
     22  0.117834D-01  0.125526D+00
     23 -0.102017D-01  0.113431D+00  0.256505D+00
     24  0.854752D-02  0.456599D-01  0.790850D-01  0.882370D-01
 Force constants in internal coordinates: 
                1             2             3             4             5 
      1  0.935472D-02
      2  0.000000D+00  0.351756D+00
      3  0.000000D+00  0.000000D+00  0.352458D+00
      4  0.000000D+00  0.000000D+00  0.000000D+00  0.353216D+00
      5  0.000000D+00  0.000000D+00  0.000000D+00  0.000000D+00  0.352199D+00
      6  0.000000D+00  0.000000D+00  0.000000D+00  0.000000D+00  0.000000D+00
      7  0.000000D+00  0.000000D+00  0.000000D+00  0.000000D+00  0.000000D+00
      8  0.000000D+00  0.000000D+00  0.000000D+00  0.000000D+00  0.000000D+00
      9  0.000000D+00  0.000000D+00  0.000000D+00  0.000000D+00  0.000000D+00
     10  0.000000D+00  0.000000D+00  0.000000D+00  0.000000D+00  0.000000D+00
     11  0.000000D+00  0.000000D+00  0.000000D+00  0.000000D+00  0.000000D+00
     12  0.000000D+00  0.000000D+00  0.000000D+00  0.000000D+00  0.000000D+00
     13  0.000000D+00  0.000000D+00  0.000000D+00  0.000000D+00  0.000000D+00
     14  0.000000D+00  0.000000D+00  0.000000D+00  0.000000D+00  0.000000D+00
     15  0.000000D+00  0.000000D+00  0.000000D+00  0.000000D+00  0.000000D+00
     16  0.000000D+00  0.000000D+00  0.000000D+00  0.000000D+00  0.000000D+00
     17  0.000000D+00  0.000000D+00  0.000000D+00  0.000000D+00  0.000000D+00
     18  0.000000D+00  0.000000D+00  0.000000D+00  0.000000D+00  0.000000D+00
                6             7             8             9            10 
      6  0.353347D+00
      7  0.000000D+00  0.353439D+00
      8  0.000000D+00  0.000000D+00  0.240987D+00
      9  0.000000D+00  0.000000D+00  0.415249D-01  0.240274D+00
     10  0.000000D+00  0.000000D+00  0.400334D-01  0.415247D-01  0.240987D+00
     11  0.000000D+00  0.000000D+00  0.000000D+00  0.000000D+00  0.000000D+00
     12  0.000000D+00  0.000000D+00  0.000000D+00  0.000000D+00  0.000000D+00
     13  0.000000D+00  0.000000D+00  0.000000D+00  0.000000D+00  0.000000D+00
     14  0.000000D+00  0.000000D+00 -0.656098D-01  0.000000D+00  0.656103D-01
     15  0.000000D+00  0.000000D+00  0.644146D-01 -0.643742D-01 -0.119226D-02
     16  0.000000D+00  0.000000D+00  0.000000D+00  0.000000D+00  0.000000D+00
     17  0.000000D+00  0.000000D+00  0.000000D+00  0.000000D+00  0.000000D+00
     18  0.000000D+00  0.000000D+00  0.000000D+00  0.000000D+00  0.000000D+00
               11            12            13            14            15 
     11  0.238948D+00
     12  0.402303D-01  0.238948D+00
     13  0.402303D-01  0.402301D-01  0.238949D+00
     14  0.000000D+00  0.000000D+00  0.000000D+00  0.221944D+00
     15  0.000000D+00  0.000000D+00  0.000000D+00 -0.107532D+00  0.223903D+00
     16  0.000000D+00  0.000000D+00  0.000000D+00  0.690000D-02  0.690000D-02
     17 -0.644012D-01  0.000000D+00  0.644016D-01  0.230000D-02  0.230000D-02
     18  0.644012D-01 -0.644016D-01  0.000000D+00  0.230000D-02  0.230000D-02
               16            17            18 
     16  0.207000D-01
     17  0.689994D-02  0.225823D+00
     18  0.689992D-02 -0.109462D+00  0.225823D+00
 Leave Link  716 at Thu May 27 13:49:58 2021, MaxMem=   13107200 cpu:       0.0
 (Enter /programs/64bit/g09/g09-gfortran/bin/l103.exe)

 GradGradGradGradGradGradGradGradGradGradGradGradGradGradGradGradGradGrad
 Berny optimization.
 Search for a local minimum.
 Step number   1 out of a maximum of    2
 All quantities printed in internal units (Hartrees-Bohrs-Radians)
 Second derivative matrix not updated -- first step.
 The second derivative matrix:
                          d1        a1        t1        d2        a2
           d1           0.00935
           a1           0.00000   0.24099
           t1          -0.00000  -0.06561   0.22194
           d2           0.00000  -0.00000   0.00000   0.35176
           a2          -0.00000   0.04152   0.00000  -0.00000   0.24027
           t2          -0.00000   0.06441  -0.10753  -0.00000  -0.06437
           d3           0.00000  -0.00000  -0.00000  -0.00000  -0.00000
           d4          -0.00000  -0.00000   0.00000   0.00000   0.00000
           a3           0.00000   0.04003   0.06561  -0.00000   0.04152
           d5          -0.00000   0.00000  -0.00000   0.00000  -0.00000
           a4           0.00000   0.00000  -0.00000   0.00000   0.00000
           t3           0.00000   0.00000   0.00690   0.00000  -0.00000
           d6           0.00000   0.00000   0.00000   0.00000  -0.00000
           a5           0.00000   0.00000  -0.00000   0.00000   0.00000
           t4          -0.00000   0.00000   0.00230   0.00000   0.00000
           d7           0.00000   0.00000  -0.00000   0.00000   0.00000
           a6           0.00000   0.00000  -0.00000   0.00000  -0.00000
           t5           0.00000   0.00000   0.00230   0.00000  -0.00000
                          t2        d3        d4        a3        d5
           t2           0.22390
           d3           0.00000   0.35246
           d4           0.00000  -0.00000   0.35322
           a3          -0.00119  -0.00000  -0.00000   0.24099
           d5          -0.00000   0.00000  -0.00000   0.00000   0.35220
           a4          -0.00000  -0.00000   0.00000  -0.00000   0.00000
           t3           0.00690  -0.00000  -0.00000  -0.00000  -0.00000
           d6           0.00000  -0.00000   0.00000  -0.00000  -0.00000
           a5          -0.00000   0.00000  -0.00000   0.00000   0.00000
           t4           0.00230  -0.00000  -0.00000  -0.00000  -0.00000
           d7          -0.00000  -0.00000   0.00000  -0.00000   0.00000
           a6           0.00000   0.00000  -0.00000   0.00000  -0.00000
           t5           0.00230  -0.00000  -0.00000   0.00000   0.00000
                          a4        t3        d6        a5        t4
           a4           0.23895
           t3           0.00000   0.02070
           d6           0.00000   0.00000   0.35335
           a5           0.04023  -0.00000   0.00000   0.23895
           t4          -0.06440   0.00690   0.00000   0.00000   0.22582
           d7           0.00000   0.00000   0.00000   0.00000   0.00000
           a6           0.04023   0.00000  -0.00000   0.04023   0.06440
           t5           0.06440   0.00690  -0.00000  -0.06440  -0.10946
                          d7        a6        t5
           d7           0.35344
           a6           0.00000   0.23895
           t5           0.00000  -0.00000   0.22582
     Eigenvalues --- 1000.000001000.000001000.000001000.000001000.00000
     Eigenvalues --- 1000.000001000.000001000.000001000.000001000.00000
     Eigenvalues --- 1000.000001000.000001000.000001000.000001000.00000
     Eigenvalues --- 1000.000001000.000001000.00000
 Angle between quadratic step and forces=  90.00 degrees.
 Linear search not attempted -- first point.
 Variable       Old X    -DE/DX   Delta X   Delta X   Delta X     New X
                                 (Linear)    (Quad)   (Total)
    d1        6.78672  -0.02266   0.00000   0.00000   0.00000   6.78672
    a1        1.90242  -0.03467   0.00000   0.00000   0.00000   1.90242
    t1        2.09440  -0.00003   0.00000   0.00000   0.00000   2.09440
    d2        2.05391   0.00255   0.00000   0.00000   0.00000   2.05391
    a2        1.91987  -0.03541   0.00000   0.00000   0.00000   1.91987
    t2       -2.09439   0.00064   0.00000   0.00000   0.00000  -2.09439
    d3        2.05278   0.00315   0.00000   0.00000   0.00000   2.05278
    d4        2.05156   0.00340   0.00000   0.00000   0.00000   2.05156
    a3        1.90242  -0.03470   0.00000   0.00000   0.00000   1.90242
    d5        2.05319   0.00265   0.00000   0.00000   0.00000   2.05319
    a4        1.90242  -0.03404   0.00000   0.00000   0.00000   1.90242
    t3        3.14159   0.00000   0.00000   0.00000   0.00000   3.14159
    d6        2.05135   0.00332   0.00000   0.00000   0.00000   2.05135
    a5        1.90242  -0.03406   0.00000   0.00000   0.00000   1.90242
    t4        2.09440  -0.00003   0.00000   0.00000   0.00000   2.09440
    d7        2.05120   0.00338   0.00000   0.00000   0.00000   2.05120
    a6        1.90242  -0.03412   0.00000   0.00000   0.00000   1.90242
    t5       -2.09440   0.00002   0.00000   0.00000   0.00000  -2.09440
         Item               Value     Threshold  Converged?
 Maximum Force            0.000000     0.000450     YES
 RMS     Force            0.000000     0.000300     YES
 Maximum Displacement     0.000000     0.001800     YES
 RMS     Displacement     0.000000     0.001200     YES
 Predicted change in Energy=-0.000000D+00
 Optimization completed.
    -- Stationary point found.
                       ----------------------------
                       !   Optimized Parameters   !
                       ! (Angstroms and Degrees)  !
 ----------------------                            ----------------------
 !      Name          Value   Derivative information (Atomic Units)     !
 ------------------------------------------------------------------------
 !       d1          3.5914   -DE/DX =   -0.0227                        !
 !       a1        109.0007   -DE/DX =   -0.0347                        !
 !       t1        120.0      -DE/DX =    0.0                           !
 !       d2          1.0869   -DE/DX =    0.0026                        !
 !       a2        110.0005   -DE/DX =   -0.0354                        !
 !       t2       -120.0      -DE/DX =    0.0006                        !
 !       d3          1.0863   -DE/DX =    0.0031                        !
 !       d4          1.0856   -DE/DX =    0.0034                        !
 !       a3        109.0006   -DE/DX =   -0.0347                        !
 !       d5          1.0865   -DE/DX =    0.0026                        !
 !       a4        109.0007   -DE/DX =   -0.034                         !
 !       t3        180.0      -DE/DX =    0.0                           !
 !       d6          1.0855   -DE/DX =    0.0033                        !
 !       a5        109.0006   -DE/DX =   -0.0341                        !
 !       t4        120.0      -DE/DX =    0.0                           !
 !       d7          1.0854   -DE/DX =    0.0034                        !
 !       a6        109.0006   -DE/DX =   -0.0341                        !
 !       t5       -120.0      -DE/DX =    0.0                           !
 ------------------------------------------------------------------------
 GradGradGradGradGradGradGradGradGradGradGradGradGradGradGradGradGradGrad

 Leave Link  103 at Thu May 27 13:49:58 2021, MaxMem=   13107200 cpu:       0.0
 (Enter /programs/64bit/g09/g09-gfortran/bin/l9999.exe)
 1\1\GINC-MOLMOD\Force\RB3LYP\6-31+G(d,p)\C2H6\OSPITE\27-May-2021\1\\#p
  b3lyp/6-31+g(d,p) force nosym\\c2h6 molecule\\0,1\C\C,1,d1\H,1,d2,2,a
 1\H,1,d3,2,a2,3,t1,0\H,1,d4,2,a3,3,t2,0\H,2,d5,1,a4,3,t3,0\H,2,d6,1,a5
 ,6,t4,0\H,2,d7,1,a6,6,t5,0\\d1=3.59137869\a1=109.00069115\t1=120.00002
 094\d2=1.0868807\a2=110.00050615\t2=-119.99998778\d3=1.0862827\d4=1.08
 56381\a3=109.0006161\d5=1.08650275\a4=109.00070511\t3=179.99999825\d6=
 1.08552681\a5=109.00062832\t4=120.00001745\d7=1.08544912\a6=109.000626
 57\t5=-120.00001396\\Version=EM64L-G09RevA.02\HF=-79.6360561\RMSD=6.12
 7e-09\RMSF=1.064e-02\Dipole=0.0018477,0.0032972,0.0108137\Quadrupole=-
 1.222198,-1.2324466,2.4546446,-0.0078097,0.0090988,0.014138\PG=C01 [X(
 C2H6)]\\@


 THE PROMISED LAND ALWAYS LIES ON THE OTHER SIDE OF A WILDERNESS.

                         -- HAVELOCK ELLIS
 Job cpu time:  0 days  0 hours  0 minutes 11.8 seconds.
 File lengths (MBytes):  RWF=      5 Int=      0 D2E=      0 Chk=      1 Scr=      1
 Normal termination of Gaussian 09 at Thu May 27 13:49:58 2021.
