 Entering Gaussian System, Link 0=g09
 Input=c2h6_032.com
 Output=c2h6_032.log
 Initial command:
 /programs/64bit/g09/g09-gfortran/bin/l1.exe /data/scratch/Gau-17684.inp -scrdir=/data/scratch/
 Entering Link 1 = /programs/64bit/g09/g09-gfortran/bin/l1.exe PID=     17685.
  
 Copyright (c) 1988,1990,1992,1993,1995,1998,2003,2009, Gaussian, Inc.
                  All Rights Reserved.
  
 This is part of the Gaussian(R) 09 program.  It is based on
 the Gaussian(R) 03 system (copyright 2003, Gaussian, Inc.),
 the Gaussian(R) 98 system (copyright 1998, Gaussian, Inc.),
 the Gaussian(R) 94 system (copyright 1995, Gaussian, Inc.),
 the Gaussian 92(TM) system (copyright 1992, Gaussian, Inc.),
 the Gaussian 90(TM) system (copyright 1990, Gaussian, Inc.),
 the Gaussian 88(TM) system (copyright 1988, Gaussian, Inc.),
 the Gaussian 86(TM) system (copyright 1986, Carnegie Mellon
 University), and the Gaussian 82(TM) system (copyright 1983,
 Carnegie Mellon University). Gaussian is a federally registered
 trademark of Gaussian, Inc.
  
 This software contains proprietary and confidential information,
 including trade secrets, belonging to Gaussian, Inc.
  
 This software is provided under written license and may be
 used, copied, transmitted, or stored only in accord with that
 written license.
  
 The following legend is applicable only to US Government
 contracts under FAR:
  
                    RESTRICTED RIGHTS LEGEND
  
 Use, reproduction and disclosure by the US Government is
 subject to restrictions as set forth in subparagraphs (a)
 and (c) of the Commercial Computer Software - Restricted
 Rights clause in FAR 52.227-19.
  
 Gaussian, Inc.
 340 Quinnipiac St., Bldg. 40, Wallingford CT 06492
  
  
 ---------------------------------------------------------------
 Warning -- This program may not be used in any manner that
 competes with the business of Gaussian, Inc. or will provide
 assistance to any competitor of Gaussian, Inc.  The licensee
 of this program is prohibited from giving any competitor of
 Gaussian, Inc. access to this program.  By using this program,
 the user acknowledges that Gaussian, Inc. is engaged in the
 business of creating and licensing software in the field of
 computational chemistry and represents and warrants to the
 licensee that it is not a competitor of Gaussian, Inc. and that
 it will not use this program in any manner prohibited above.
 ---------------------------------------------------------------
  

 Cite this work as:
 Gaussian 09, Revision A.02,
 M. J. Frisch, G. W. Trucks, H. B. Schlegel, G. E. Scuseria, 
 M. A. Robb, J. R. Cheeseman, G. Scalmani, V. Barone, B. Mennucci, 
 G. A. Petersson, H. Nakatsuji, M. Caricato, X. Li, H. P. Hratchian, 
 A. F. Izmaylov, J. Bloino, G. Zheng, J. L. Sonnenberg, M. Hada, 
 M. Ehara, K. Toyota, R. Fukuda, J. Hasegawa, M. Ishida, T. Nakajima, 
 Y. Honda, O. Kitao, H. Nakai, T. Vreven, J. A. Montgomery, Jr., 
 J. E. Peralta, F. Ogliaro, M. Bearpark, J. J. Heyd, E. Brothers, 
 K. N. Kudin, V. N. Staroverov, R. Kobayashi, J. Normand, 
 K. Raghavachari, A. Rendell, J. C. Burant, S. S. Iyengar, J. Tomasi, 
 M. Cossi, N. Rega, J. M. Millam, M. Klene, J. E. Knox, J. B. Cross, 
 V. Bakken, C. Adamo, J. Jaramillo, R. Gomperts, R. E. Stratmann, 
 O. Yazyev, A. J. Austin, R. Cammi, C. Pomelli, J. W. Ochterski, 
 R. L. Martin, K. Morokuma, V. G. Zakrzewski, G. A. Voth, 
 P. Salvador, J. J. Dannenberg, S. Dapprich, A. D. Daniels, 
 O. Farkas, J. B. Foresman, J. V. Ortiz, J. Cioslowski, 
 and D. J. Fox, Gaussian, Inc., Wallingford CT, 2009.
 
 ******************************************
 Gaussian 09:  EM64L-G09RevA.02 11-Jun-2009
                27-May-2021 
 ******************************************
 %chk=c2h6_032.chk
 %mem=100MB
 --------------------------------
 #p b3lyp/6-31+g(d,p) force nosym
 --------------------------------
 1/10=7,30=1,38=1/1,3;
 2/12=2,15=1,17=6,18=5,40=1/2;
 3/5=1,6=6,7=111,11=2,16=1,25=1,30=1,71=1,74=-5/1,2,3;
 4//1;
 5/5=2,38=5/2;
 6/7=2,8=2,9=2,10=2,28=1/1;
 7/29=1,30=1/1,2,3,16;
 1/10=7,30=1/3;
 99//99;
 Leave Link    1 at Thu May 27 13:54:57 2021, MaxMem=   13107200 cpu:       0.0
 (Enter /programs/64bit/g09/g09-gfortran/bin/l101.exe)
 -------------
 c2h6 molecule
 -------------
 Symbolic Z-matrix:
 Charge =  0 Multiplicity = 1
 C1
 C2                   1    d1
 H3                   1    d2       2    a1
 H4                   1    d3       2    a2       3    t1       0
 H5                   1    d4       2    a3       3    t2       0
 H6                   2    d5       1    a4       3    t3       0
 H7                   2    d6       1    a5       6    t4       0
 H8                   2    d7       1    a6       6    t5       0
       Variables:
       Constants:
  d1                    1.53354                  
  a1                  109.37005                  
  t1                  120.00012                  
  d2                    1.08873                  
  a2                  110.26341                  
  t2                 -119.97087                  
  d3                    1.08933                  
  d4                    1.09578                  
  a3                  109.37005                  
  d5                    1.09406                  
  a4                  109.38628                  
  t3                  180.                       
  d6                    1.08808                  
  a5                  109.38674                  
  t4                  120.00002                  
  d7                    1.09658                  
  a6                  109.36683                  
  t5                 -120.00002                  
 
 NAtoms=      8 NQM=      8 NQMF=      0 NMic=      0 NMicF=      0 NTot=      8.
                    Isotopes and Nuclear Properties:
 (Nuclear quadrupole moments (NQMom) in fm**2, nuclear magnetic moments (NMagM)
  in nuclear magnetons)

  Atom         1           2           3           4           5           6           7           8
 IAtWgt=          12          12           1           1           1           1           1           1
 AtmWgt=  12.0000000  12.0000000   1.0078250   1.0078250   1.0078250   1.0078250   1.0078250   1.0078250
 NucSpn=           0           0           1           1           1           1           1           1
 AtZEff=   0.0000000   0.0000000   0.0000000   0.0000000   0.0000000   0.0000000   0.0000000   0.0000000
 NQMom=    0.0000000   0.0000000   0.0000000   0.0000000   0.0000000   0.0000000   0.0000000   0.0000000
 NMagM=    0.0000000   0.0000000   2.7928460   2.7928460   2.7928460   2.7928460   2.7928460   2.7928460
 Leave Link  101 at Thu May 27 13:54:57 2021, MaxMem=   13107200 cpu:       0.0
 (Enter /programs/64bit/g09/g09-gfortran/bin/l103.exe)

 GradGradGradGradGradGradGradGradGradGradGradGradGradGradGradGradGradGrad
 Berny optimization.
 Initialization pass.
                       ----------------------------
                       !    Initial Parameters    !
                       ! (Angstroms and Degrees)  !
 ----------------------                            ----------------------
 !      Name          Value   Derivative information (Atomic Units)     !
 ------------------------------------------------------------------------
 !       d1          1.5335   Frozen                                    !
 !       a1        109.37     Frozen                                    !
 !       t1        120.0001   Frozen                                    !
 !       d2          1.0887   Frozen                                    !
 !       a2        110.2634   Frozen                                    !
 !       t2       -119.9709   Frozen                                    !
 !       d3          1.0893   Frozen                                    !
 !       d4          1.0958   Frozen                                    !
 !       a3        109.3701   Frozen                                    !
 !       d5          1.0941   Frozen                                    !
 !       a4        109.3863   Frozen                                    !
 !       t3        180.0      Frozen                                    !
 !       d6          1.0881   Frozen                                    !
 !       a5        109.3867   Frozen                                    !
 !       t4        120.0      Frozen                                    !
 !       d7          1.0966   Frozen                                    !
 !       a6        109.3668   Frozen                                    !
 !       t5       -120.0      Frozen                                    !
 ------------------------------------------------------------------------
 Trust Radius=3.00D-01 FncErr=1.00D-07 GrdErr=1.00D-07
 Number of steps in this run=   2 maximum allowed number of steps=   2.
 GradGradGradGradGradGradGradGradGradGradGradGradGradGradGradGradGradGrad

 Leave Link  103 at Thu May 27 13:54:57 2021, MaxMem=   13107200 cpu:       0.0
 (Enter /programs/64bit/g09/g09-gfortran/bin/l202.exe)
                          Input orientation:                          
 ---------------------------------------------------------------------
 Center     Atomic      Atomic             Coordinates (Angstroms)
 Number     Number       Type             X           Y           Z
 ---------------------------------------------------------------------
      1          6           0        0.000000    0.000000    0.000000
      2          6           0        0.000000    0.000000    1.533536
      3          1           0        1.027100    0.000000   -0.361095
      4          1           0       -0.510956   -0.884997   -0.377274
      5          1           0       -0.516420    0.895517   -0.363434
      6          1           0       -1.032029    0.000000    1.896694
      7          1           0        0.513193   -0.888875    1.894717
      8          1           0        0.517263    0.895925    1.897177
 ---------------------------------------------------------------------
                    Distance matrix (angstroms):
                    1          2          3          4          5
     1  C    0.000000
     2  C    1.533536   0.000000
     3  H    1.088726   2.155125   0.000000
     4  H    1.089326   2.166908   1.774570   0.000000
     5  H    1.095776   2.160356   1.784492   1.780577   0.000000
     6  H    2.159290   1.094060   3.055753   2.495128   2.485152
     7  H    2.154859   1.088080   2.478485   2.492155   3.056698
     8  H    2.160908   1.096575   2.482420   3.066276   2.485732
                    6          7          8
     6  H    0.000000
     7  H    1.782643   0.000000
     8  H    1.789690   1.784807   0.000000
 Symmetry turned off by external request.
 Stoichiometry    C2H6
 Framework group  C1[X(C2H6)]
 Deg. of freedom    18
 Full point group                 C1      NOp   1
 Rotational constants (GHZ):     78.8867440     20.1701648     20.1652463
 Leave Link  202 at Thu May 27 13:54:57 2021, MaxMem=   13107200 cpu:       0.0
 (Enter /programs/64bit/g09/g09-gfortran/bin/l301.exe)
 Standard basis: 6-31+G(d,p) (6D, 7F)
 Ernie: Thresh=  0.10000D-02 Tol=  0.10000D-05 Strict=F.
 Integral buffers will be    131072 words long.
 Raffenetti 2 integral format.
 Two-electron integral symmetry is turned off.
    68 basis functions,   106 primitive gaussians,    68 cartesian basis functions
     9 alpha electrons        9 beta electrons
       nuclear repulsion energy        42.2647895906 Hartrees.
 IExCor=  402 DFT=T Ex+Corr=B3LYP ExCW=0 ScaHFX=  0.200000
 ScaDFX=  0.800000  0.720000  1.000000  0.810000 ScalE2=  1.000000  1.000000
 IRadAn=      0 IRanWt=     -1 IRanGd=            0 ICorTp=0
 NAtoms=    8 NActive=    8 NUniq=    8 SFac= 7.50D-01 NAtFMM=   80 NAOKFM=F Big=F
 Leave Link  301 at Thu May 27 13:54:57 2021, MaxMem=   13107200 cpu:       0.0
 (Enter /programs/64bit/g09/g09-gfortran/bin/l302.exe)
 NPDir=0 NMtPBC=     1 NCelOv=     1 NCel=       1 NClECP=     1 NCelD=      1
         NCelK=      1 NCelE2=     1 NClLst=     1 CellRange=     0.0.
 One-electron integrals computed using PRISM.
 NBasis=    68 RedAO= T  NBF=    68
 NBsUse=    68 1.00D-06 NBFU=    68
 Precomputing XC quadrature grid using
 IXCGrd= 2 IRadAn=           0 IRanWt=          -1 IRanGd=           0 AccXCQ= 1.00D-10.
 NRdTot=     510 NPtTot=       65100 NUsed=       68787 NTot=       68819
 NSgBfM=    68    68    68    68    68 NAtAll=     8     8.
 Leave Link  302 at Thu May 27 13:54:57 2021, MaxMem=   13107200 cpu:       0.1
 (Enter /programs/64bit/g09/g09-gfortran/bin/l303.exe)
 DipDrv:  MaxL=1.
 Leave Link  303 at Thu May 27 13:54:57 2021, MaxMem=   13107200 cpu:       0.0
 (Enter /programs/64bit/g09/g09-gfortran/bin/l401.exe)
 Harris functional with IExCor=  402 diagonalized for initial guess.
 ExpMin= 4.38D-02 ExpMax= 3.05D+03 ExpMxC= 4.57D+02 IAcc=2 IRadAn=         0 AccDes= 0.00D+00
 HarFok:  IExCor=  402 AccDes= 0.00D+00 IRadAn=         0 IDoV= 1
 ScaDFX=  1.000000  1.000000  1.000000  1.000000
 FoFCou: FMM=F IPFlag=           0 FMFlag=      100000 FMFlg1=           0
         NFxFlg=           0 DoJE=T BraDBF=F KetDBF=T FulRan=T
         Omega=  0.000000  0.000000  1.000000  0.000000  0.000000 ICntrl=     500 IOpCl=  0
         NMat0=    1 NMatS0=    1 NMatT0=    0 NMatD0=    1 NMtDS0=    0 NMtDT0=    0
         I1Cent=           4 NGrid=           0.
 Symmetry not used in FoFCou.
 Harris En= -79.8994843891202    
 Leave Link  401 at Thu May 27 13:54:58 2021, MaxMem=   13107200 cpu:       0.6
 (Enter /programs/64bit/g09/g09-gfortran/bin/l502.exe)
 Closed shell SCF:
 Requested convergence on RMS density matrix=1.00D-08 within 128 cycles.
 Requested convergence on MAX density matrix=1.00D-06.
 Requested convergence on             energy=1.00D-06.
 No special actions if energy rises.
 Using DIIS extrapolation, IDIIS=  1040.
 Two-electron integral symmetry not used.
        68702 words used for storage of precomputed grid.
 Keep R1 ints in memory in canonical form, NReq=3743087.
 IEnd=      101552 IEndB=      101552 NGot=    13107200 MDV=    10273922
 LenX=    10273922 LenY=    10268857
 Symmetry not used in FoFDir.
 MinBra= 0 MaxBra= 2 Meth= 1.
 IRaf=       0 NMat=   1 IRICut=       1 DoRegI=T DoRafI=F ISym2E= 0 JSym2E=0.

 Cycle   1  Pass 1  IDiag  1:
 E= -79.7073469077942    
 DIIS: error= 4.01D-02 at cycle   1 NSaved=   1.
 NSaved= 1 IEnMin= 1 EnMin= -79.7073469077942     IErMin= 1 ErrMin= 4.01D-02
 ErrMax= 4.01D-02 EMaxC= 1.00D-01 BMatC= 1.17D-01 BMatP= 1.17D-01
 IDIUse=3 WtCom= 5.99D-01 WtEn= 4.01D-01
 Coeff-Com:  0.100D+01
 Coeff-En:   0.100D+01
 Coeff:      0.100D+01
 Gap=     0.281 Goal=   None    Shift=    0.000
 GapD=    0.281 DampG=1.000 DampE=0.500 DampFc=0.5000 IDamp=-1.
 Damping current iteration by 5.00D-01
 RMSDP=9.69D-03 MaxDP=1.41D-01              OVMax= 2.04D-01

 Cycle   2  Pass 1  IDiag  1:
 E= -79.7627087125704     Delta-E=       -0.055361804776 Rises=F Damp=T
 DIIS: error= 1.17D-02 at cycle   2 NSaved=   2.
 NSaved= 2 IEnMin= 2 EnMin= -79.7627087125704     IErMin= 2 ErrMin= 1.17D-02
 ErrMax= 1.17D-02 EMaxC= 1.00D-01 BMatC= 4.57D-03 BMatP= 1.17D-01
 IDIUse=3 WtCom= 8.83D-01 WtEn= 1.17D-01
 Coeff-Com:  0.109D+00 0.891D+00
 Coeff-En:   0.186D+00 0.814D+00
 Coeff:      0.118D+00 0.882D+00
 Gap=     0.375 Goal=   None    Shift=    0.000
 RMSDP=1.30D-03 MaxDP=1.01D-02 DE=-5.54D-02 OVMax= 1.26D-01

 Cycle   3  Pass 1  IDiag  1:
 E= -79.8405249681277     Delta-E=       -0.077816255557 Rises=F Damp=F
 DIIS: error= 2.27D-03 at cycle   3 NSaved=   3.
 NSaved= 3 IEnMin= 3 EnMin= -79.8405249681277     IErMin= 3 ErrMin= 2.27D-03
 ErrMax= 2.27D-03 EMaxC= 1.00D-01 BMatC= 1.54D-04 BMatP= 4.57D-03
 IDIUse=3 WtCom= 9.77D-01 WtEn= 2.27D-02
 Coeff-Com:  0.734D-02 0.106D+00 0.887D+00
 Coeff-En:   0.000D+00 0.000D+00 0.100D+01
 Coeff:      0.717D-02 0.103D+00 0.889D+00
 Gap=     0.364 Goal=   None    Shift=    0.000
 RMSDP=1.99D-04 MaxDP=2.15D-03 DE=-7.78D-02 OVMax= 4.58D-03

 Cycle   4  Pass 1  IDiag  1:
 E= -79.8406572258240     Delta-E=       -0.000132257696 Rises=F Damp=F
 DIIS: error= 6.95D-04 at cycle   4 NSaved=   4.
 NSaved= 4 IEnMin= 4 EnMin= -79.8406572258240     IErMin= 4 ErrMin= 6.95D-04
 ErrMax= 6.95D-04 EMaxC= 1.00D-01 BMatC= 1.05D-05 BMatP= 1.54D-04
 IDIUse=3 WtCom= 9.93D-01 WtEn= 6.95D-03
 Coeff-Com: -0.533D-03-0.545D-02 0.196D+00 0.810D+00
 Coeff-En:   0.000D+00 0.000D+00 0.000D+00 0.100D+01
 Coeff:     -0.530D-03-0.541D-02 0.195D+00 0.811D+00
 Gap=     0.364 Goal=   None    Shift=    0.000
 RMSDP=4.39D-05 MaxDP=4.49D-04 DE=-1.32D-04 OVMax= 1.22D-03

 Cycle   5  Pass 1  IDiag  1:
 E= -79.8406671259203     Delta-E=       -0.000009900096 Rises=F Damp=F
 DIIS: error= 2.53D-05 at cycle   5 NSaved=   5.
 NSaved= 5 IEnMin= 5 EnMin= -79.8406671259203     IErMin= 5 ErrMin= 2.53D-05
 ErrMax= 2.53D-05 EMaxC= 1.00D-01 BMatC= 3.04D-08 BMatP= 1.05D-05
 IDIUse=1 WtCom= 1.00D+00 WtEn= 0.00D+00
 Coeff-Com:  0.355D-03-0.644D-03-0.201D-03 0.140D-01 0.987D+00
 Coeff:      0.355D-03-0.644D-03-0.201D-03 0.140D-01 0.987D+00
 Gap=     0.364 Goal=   None    Shift=    0.000
 RMSDP=3.00D-06 MaxDP=7.15D-05 DE=-9.90D-06 OVMax= 9.86D-05

 Cycle   6  Pass 1  IDiag  1:
 E= -79.8406671508632     Delta-E=       -0.000000024943 Rises=F Damp=F
 DIIS: error= 1.87D-05 at cycle   6 NSaved=   6.
 NSaved= 6 IEnMin= 6 EnMin= -79.8406671508632     IErMin= 6 ErrMin= 1.87D-05
 ErrMax= 1.87D-05 EMaxC= 1.00D-01 BMatC= 9.91D-09 BMatP= 3.04D-08
 IDIUse=1 WtCom= 1.00D+00 WtEn= 0.00D+00
 Coeff-Com:  0.202D-03-0.217D-03-0.499D-02-0.126D-01 0.520D+00 0.497D+00
 Coeff:      0.202D-03-0.217D-03-0.499D-02-0.126D-01 0.520D+00 0.497D+00
 Gap=     0.364 Goal=   None    Shift=    0.000
 RMSDP=1.16D-06 MaxDP=2.47D-05 DE=-2.49D-08 OVMax= 3.40D-05

 Cycle   7  Pass 1  IDiag  1:
 E= -79.8406671604427     Delta-E=       -0.000000009579 Rises=F Damp=F
 DIIS: error= 1.08D-06 at cycle   7 NSaved=   7.
 NSaved= 7 IEnMin= 7 EnMin= -79.8406671604427     IErMin= 7 ErrMin= 1.08D-06
 ErrMax= 1.08D-06 EMaxC= 1.00D-01 BMatC= 4.26D-11 BMatP= 9.91D-09
 IDIUse=1 WtCom= 1.00D+00 WtEn= 0.00D+00
 Coeff-Com: -0.626D-05 0.183D-05-0.316D-03-0.114D-02-0.135D-02 0.543D-01
 Coeff-Com:  0.948D+00
 Coeff:     -0.626D-05 0.183D-05-0.316D-03-0.114D-02-0.135D-02 0.543D-01
 Coeff:      0.948D+00
 Gap=     0.364 Goal=   None    Shift=    0.000
 RMSDP=1.09D-07 MaxDP=1.62D-06 DE=-9.58D-09 OVMax= 2.26D-06

 Cycle   8  Pass 1  IDiag  1:
 E= -79.8406671604877     Delta-E=       -0.000000000045 Rises=F Damp=F
 DIIS: error= 1.64D-07 at cycle   8 NSaved=   8.
 NSaved= 8 IEnMin= 8 EnMin= -79.8406671604877     IErMin= 8 ErrMin= 1.64D-07
 ErrMax= 1.64D-07 EMaxC= 1.00D-01 BMatC= 1.04D-12 BMatP= 4.26D-11
 IDIUse=1 WtCom= 1.00D+00 WtEn= 0.00D+00
 Coeff-Com: -0.357D-05 0.218D-05-0.656D-04-0.293D-03-0.439D-02 0.143D-01
 Coeff-Com:  0.314D+00 0.676D+00
 Coeff:     -0.357D-05 0.218D-05-0.656D-04-0.293D-03-0.439D-02 0.143D-01
 Coeff:      0.314D+00 0.676D+00
 Gap=     0.364 Goal=   None    Shift=    0.000
 RMSDP=2.13D-08 MaxDP=2.04D-07 DE=-4.50D-11 OVMax= 3.57D-07

 Cycle   9  Pass 1  IDiag  1:
 E= -79.8406671604891     Delta-E=       -0.000000000001 Rises=F Damp=F
 DIIS: error= 1.25D-08 at cycle   9 NSaved=   9.
 NSaved= 9 IEnMin= 9 EnMin= -79.8406671604891     IErMin= 9 ErrMin= 1.25D-08
 ErrMax= 1.25D-08 EMaxC= 1.00D-01 BMatC= 7.06D-15 BMatP= 1.04D-12
 IDIUse=1 WtCom= 1.00D+00 WtEn= 0.00D+00
 Coeff-Com: -0.149D-07 0.181D-06 0.776D-05 0.114D-04-0.412D-03-0.104D-02
 Coeff-Com: -0.121D-01 0.398D-01 0.974D+00
 Coeff:     -0.149D-07 0.181D-06 0.776D-05 0.114D-04-0.412D-03-0.104D-02
 Coeff:     -0.121D-01 0.398D-01 0.974D+00
 Gap=     0.364 Goal=   None    Shift=    0.000
 RMSDP=1.74D-09 MaxDP=1.57D-08 DE=-1.42D-12 OVMax= 4.56D-08

 SCF Done:  E(RB3LYP) =  -79.8406671605     A.U. after    9 cycles
             Convg  =    0.1735D-08             -V/T =  2.0105
 KE= 7.900821223437D+01 PE=-2.682980971491D+02 EE= 6.718442816362D+01
 Leave Link  502 at Thu May 27 13:55:03 2021, MaxMem=   13107200 cpu:       4.8
 (Enter /programs/64bit/g09/g09-gfortran/bin/l601.exe)
 Copying SCF densities to generalized density rwf, IOpCl= 0 IROHF=0.

 **********************************************************************

            Population analysis using the SCF density.

 **********************************************************************

 Alpha  occ. eigenvalues --  -10.17620 -10.17549  -0.75508  -0.61350  -0.43969
 Alpha  occ. eigenvalues --   -0.43893  -0.35961  -0.34670  -0.34630
 Alpha virt. eigenvalues --    0.01756   0.03190   0.05274   0.05285   0.07964
 Alpha virt. eigenvalues --    0.08980   0.08986   0.14279   0.19106   0.19151
 Alpha virt. eigenvalues --    0.20441   0.20579   0.25096   0.29530   0.32973
 Alpha virt. eigenvalues --    0.61740   0.64380   0.64407   0.66470   0.66570
 Alpha virt. eigenvalues --    0.69722   0.91923   0.92002   0.97200   0.97273
 Alpha virt. eigenvalues --    0.99979   1.09969   1.11409   1.32015   1.32223
 Alpha virt. eigenvalues --    1.46532   1.68922   1.69147   1.90588   2.04364
 Alpha virt. eigenvalues --    2.04569   2.08834   2.09224   2.09818   2.10188
 Alpha virt. eigenvalues --    2.29025   2.29351   2.37996   2.49349   2.49692
 Alpha virt. eigenvalues --    2.67049   2.73578   2.80897   2.81068   2.91943
 Alpha virt. eigenvalues --    2.92439   3.22724   3.28361   3.37177   3.37197
 Alpha virt. eigenvalues --    3.52751   3.52955   4.33508   4.58508
          Condensed to atoms (all electrons):
              1          2          3          4          5          6
     1  C    5.098607   0.259900   0.406008   0.405353   0.406093  -0.047104
     2  C    0.259900   5.094753  -0.046818  -0.045229  -0.047116   0.406095
     3  H    0.406008  -0.046818   0.556944  -0.028876  -0.028060   0.004928
     4  H    0.405353  -0.045229  -0.028876   0.556408  -0.028602  -0.004510
     5  H    0.406093  -0.047116  -0.028060  -0.028602   0.557878  -0.004599
     6  H   -0.047104   0.406095   0.004928  -0.004510  -0.004599   0.557000
     7  H   -0.046773   0.405963  -0.004614  -0.004511   0.004921  -0.028290
     8  H   -0.047808   0.407029  -0.004643   0.004826  -0.004639  -0.028126
              7          8
     1  C   -0.046773  -0.047808
     2  C    0.405963   0.407029
     3  H   -0.004614  -0.004643
     4  H   -0.004511   0.004826
     5  H    0.004921  -0.004639
     6  H   -0.028290  -0.028126
     7  H    0.556207  -0.028339
     8  H   -0.028339   0.557288
 Mulliken atomic charges:
              1
     1  C   -0.434275
     2  C   -0.434576
     3  H    0.145132
     4  H    0.145141
     5  H    0.144124
     6  H    0.144605
     7  H    0.145436
     8  H    0.144413
 Sum of Mulliken atomic charges =   0.00000
 Mulliken charges with hydrogens summed into heavy atoms:
              1
     1  C    0.000122
     2  C   -0.000122
 Sum of Mulliken charges with hydrogens summed into heavy atoms =   0.00000
 Electronic spatial extent (au):  <R**2>=            147.2819
 Charge=              0.0000 electrons
 Dipole moment (field-independent basis, Debye):
    X=              0.0042    Y=             -0.0092    Z=             -0.0043  Tot=              0.0110
 Quadrupole moment (field-independent basis, Debye-Ang):
   XX=            -14.9441   YY=            -14.9498   ZZ=            -16.1427
   XY=             -0.0058   XZ=              0.0129   YZ=              0.0115
 Traceless Quadrupole moment (field-independent basis, Debye-Ang):
   XX=              0.4014   YY=              0.3957   ZZ=             -0.7971
   XY=             -0.0058   XZ=              0.0129   YZ=              0.0115
 Octapole moment (field-independent basis, Debye-Ang**2):
  XXX=              0.0124  YYY=             -0.0746  ZZZ=            -37.1518  XYY=              0.0183
  XXY=             -0.0252  XXZ=            -11.4453  XZZ=              0.0119  YZZ=             -0.0467
  YYZ=            -11.4498  XYZ=              0.0015
 Hexadecapole moment (field-independent basis, Debye-Ang**3):
 XXXX=            -31.1945 YYYY=            -31.2210 ZZZZ=           -155.3837 XXXY=             -0.0032
 XXXZ=             -1.2834 YYYX=             -0.0059 YYYZ=             -0.0626 ZZZX=              0.0263
 ZZZY=             -0.0821 XXYY=            -10.4031 XXZZ=            -29.3076 YYZZ=            -29.2988
 XXYZ=             -0.0207 YYXZ=              1.2939 ZZXY=              0.0175
 N-N= 4.226478959062D+01 E-N=-2.682980974392D+02  KE= 7.900821223437D+01
 No NMR shielding tensors so no spin-rotation constants.
 Leave Link  601 at Thu May 27 13:55:03 2021, MaxMem=   13107200 cpu:       0.0
 (Enter /programs/64bit/g09/g09-gfortran/bin/l701.exe)
 Compute integral first derivatives.
 ... and contract with generalized density number  0.
 Leave Link  701 at Thu May 27 13:55:03 2021, MaxMem=   13107200 cpu:       0.0
 (Enter /programs/64bit/g09/g09-gfortran/bin/l702.exe)
 L702 exits ... SP integral derivatives will be done elsewhere.
 Leave Link  702 at Thu May 27 13:55:03 2021, MaxMem=   13107200 cpu:       0.0
 (Enter /programs/64bit/g09/g09-gfortran/bin/l703.exe)
 Compute integral first derivatives, UseDBF=F ICtDFT=           0.
 Integral derivatives from FoFDir, PRISM(SPDF).
 Calling FoFJK, ICntrl=      2127 FMM=F ISym2X=0 I1Cent= 0 IOpClX= 0 NMat=1 NMatS=1 NMatT=0.
 FoFCou: FMM=F IPFlag=           0 FMFlag=      100000 FMFlg1=         800
         NFxFlg=           0 DoJE=F BraDBF=F KetDBF=F FulRan=T
         Omega=  0.000000  0.000000  1.000000  0.000000  0.000000 ICntrl=    2127 IOpCl=  0
         NMat0=    1 NMatS0=    1 NMatT0=    0 NMatD0=    1 NMtDS0=    0 NMtDT0=    0
         I1Cent=           0 NGrid=           0.
 Symmetry not used in FoFCou.
 Leave Link  703 at Thu May 27 13:55:04 2021, MaxMem=   13107200 cpu:       1.1
 (Enter /programs/64bit/g09/g09-gfortran/bin/l716.exe)
 Dipole        = 1.66325609D-03-3.60842037D-03-1.68175817D-03
 -------------------------------------------------------------------
 Center     Atomic                   Forces (Hartrees/Bohr)
 Number     Number              X              Y              Z
 -------------------------------------------------------------------
      1        6          -0.001827511    0.003865918    0.008047104
      2        6          -0.001608482    0.003402901   -0.008706824
      3        1           0.002242325    0.000502347   -0.005667815
      4        1          -0.001220243   -0.001867220   -0.004193700
      5        1           0.001353233   -0.001595746   -0.004152437
      6        1           0.001249106    0.000118443    0.004720881
      7        1           0.001251158   -0.002083625    0.006026579
      8        1          -0.001439586   -0.002343018    0.003926213
 -------------------------------------------------------------------
 Cartesian Forces:  Max     0.008706824 RMS     0.003784118
 -----------------------------------------------------------------------------------------------
                       Internal Coordinate Forces (Hartree/Bohr or radian)
  Cent   Atom   N1       Length/X         N2         Alpha/Y        N3         Beta/Z          J
 -----------------------------------------------------------------------------------------------
      1  C 
      2  C        1   0.005967(     1)
      3  H        1   0.003995(     2)      2   0.009471(     8)
      4  H        1   0.003542(     3)      2   0.006511(     9)      3   0.000238(    14)     0
      5  H        1  -0.000565(     4)      2   0.009525(    10)      3   0.000733(    15)     0
      6  H        2   0.000389(     5)      1   0.010064(    11)      3  -0.000003(    16)     0
      7  H        2   0.004293(     6)      1   0.010030(    12)      6   0.000081(    17)     0
      8  H        2  -0.001291(     7)      1   0.009565(    13)      6   0.000147(    18)     0
 -----------------------------------------------------------------------------------------------
 Internal  Forces:  Max     0.010064133 RMS     0.005780694
 Force constants in Cartesian coordinates: 
                1             2             3             4             5 
      1  0.662094D+00
      2  0.161347D-02  0.657902D+00
      3  0.508704D-03  0.485613D-02  0.613238D+00
      4 -0.876712D-01 -0.134763D-03 -0.163805D-03  0.658735D+00
      5 -0.134865D-03 -0.878329D-01  0.116511D-04 -0.322865D-02  0.660320D+00
      6  0.418875D-04 -0.168320D-03 -0.290992D+00  0.535163D-03 -0.245247D-02
      7 -0.315903D+00 -0.839306D-04  0.852981D-01  0.893104D-02 -0.161795D-05
      8 -0.718616D-04 -0.792729D-01 -0.239822D-03  0.000000D+00  0.935295D-03
      9  0.958560D-01 -0.238732D-03 -0.106981D+00  0.254034D-01 -0.460208D-05
     10 -0.137502D+00 -0.100798D+00 -0.440438D-01  0.306890D-02  0.361532D-02
     11 -0.100993D+00 -0.254211D+00 -0.764729D-01  0.361090D-02  0.723548D-02
     12 -0.494073D-01 -0.856186D-01 -0.109868D+00 -0.126267D-01 -0.218691D-01
     13 -0.135745D+00  0.994336D-01 -0.415992D-01  0.291003D-02 -0.344318D-02
     14  0.996167D-01 -0.251322D+00  0.718449D-01 -0.344067D-02  0.688686D-02
     15 -0.469574D-01  0.810012D-01 -0.105396D+00 -0.126130D-01  0.218621D-01
     16  0.889392D-02  0.000000D+00  0.000000D+00 -0.310432D+00  0.157023D-04
     17 -0.170197D-04  0.924111D-03  0.000000D+00 -0.198364D-03 -0.793733D-01
     18  0.252750D-01  0.000000D+00  0.000000D+00  0.939064D-01  0.446002D-04
     19  0.294405D-02 -0.347551D-02  0.000000D+00 -0.139204D+00  0.102394D+00
     20 -0.346357D-02  0.693657D-02  0.000000D+00  0.102449D+00 -0.257520D+00
     21 -0.127071D-01  0.220094D-01  0.000000D+00 -0.478901D-01  0.829808D-01
     22  0.288949D-02  0.344474D-02  0.000000D+00 -0.136338D+00 -0.992166D-01
     23  0.344984D-02  0.687606D-02  0.000000D+00 -0.990576D-01 -0.250651D+00
     24 -0.126098D-01 -0.218410D-01  0.000000D+00 -0.465515D-01 -0.805729D-01
                6             7             8             9            10 
      6  0.607521D+00
      7  0.000000D+00  0.317460D+00
      8  0.000000D+00  0.866755D-04  0.594268D-01
      9  0.000000D+00 -0.914278D-01  0.246540D-03  0.895460D-01
     10  0.000000D+00 -0.533086D-02 -0.273466D-01 -0.151631D-01  0.123139D+00
     11  0.000000D+00  0.174958D-02  0.931398D-02  0.497652D-02  0.110145D+00
     12  0.000000D+00  0.311567D-02  0.151881D-01  0.886220D-02  0.473906D-01
     13  0.000000D+00 -0.515700D-02  0.273374D-01 -0.146686D-01  0.166296D-01
     14  0.000000D+00 -0.175071D-02  0.959811D-02 -0.497972D-02  0.143853D-01
     15  0.000000D+00  0.301400D-02 -0.151948D-01  0.857301D-02  0.118163D-01
     16  0.838233D-01  0.000000D+00  0.000000D+00  0.000000D+00  0.000000D+00
     17  0.122983D-03  0.000000D+00  0.851512D-03  0.000000D+00  0.741176D-03
     18 -0.105265D+00  0.000000D+00  0.000000D+00  0.000000D+00  0.000000D+00
     19 -0.428502D-01  0.000000D+00 -0.741486D-03  0.000000D+00 -0.645407D-03
     20  0.742963D-01  0.000000D+00 -0.428098D-03  0.000000D+00 -0.372627D-03
     21 -0.106625D+00  0.000000D+00  0.000000D+00  0.000000D+00  0.000000D+00
     22 -0.415501D-01  0.000000D+00  0.735652D-03  0.000000D+00  0.640329D-03
     23 -0.717984D-01  0.000000D+00 -0.424729D-03  0.000000D+00 -0.369694D-03
     24 -0.104639D+00  0.000000D+00  0.000000D+00  0.000000D+00  0.000000D+00
               11            12            13            14            15 
     11  0.250325D+00
     12  0.820754D-01  0.921931D-01
     13 -0.145154D-01  0.115277D-01  0.121357D+00
     14 -0.126640D-01  0.102243D-01 -0.108814D+00  0.247500D+00
     15 -0.105791D-01  0.881281D-02  0.447401D-01 -0.770894D-01  0.880104D-01
     16  0.000000D+00  0.000000D+00  0.000000D+00  0.000000D+00  0.000000D+00
     17 -0.427920D-03  0.000000D+00 -0.732901D-03 -0.422644D-03  0.000000D+00
     18  0.000000D+00  0.000000D+00  0.000000D+00  0.000000D+00  0.000000D+00
     19  0.372628D-03  0.000000D+00  0.638201D-03  0.368033D-03  0.000000D+00
     20  0.215137D-03  0.000000D+00  0.368466D-03  0.212484D-03  0.000000D+00
     21  0.000000D+00  0.000000D+00  0.000000D+00  0.000000D+00  0.000000D+00
     22 -0.369696D-03  0.000000D+00 -0.633180D-03 -0.365137D-03  0.000000D+00
     23  0.213444D-03  0.000000D+00  0.365567D-03  0.210812D-03  0.000000D+00
     24  0.000000D+00  0.000000D+00  0.000000D+00  0.000000D+00  0.000000D+00
               16            17            18            19            20 
     16  0.311849D+00
     17 -0.220290D-05  0.592802D-01
     18 -0.898780D-01 -0.623562D-05  0.880584D-01
     19 -0.517748D-02  0.273794D-01 -0.147135D-01  0.124461D+00
     20 -0.175397D-02  0.961733D-02 -0.498448D-02 -0.111763D+00  0.253510D+00
     21  0.304000D-02 -0.152343D-01  0.863914D-02  0.459146D-01 -0.795377D-01
     22 -0.513398D-02 -0.271701D-01 -0.145899D-01  0.169835D-01  0.145362D-01
     23  0.174050D-02  0.955074D-02  0.494619D-02 -0.145336D-01 -0.125430D-01
     24  0.301468D-02  0.151175D-01  0.856720D-02  0.116491D-01  0.102259D-01
               21            22            23            24 
     21  0.893716D-01
     22  0.116426D-01  0.121592D+00
     23 -0.102182D-01  0.108405D+00  0.246768D+00
     24  0.861429D-02  0.444974D-01  0.770705D-01  0.874578D-01
 Force constants in internal coordinates: 
                1             2             3             4             5 
      1  0.290992D+00
      2  0.000000D+00  0.349603D+00
      3  0.000000D+00  0.000000D+00  0.348906D+00
      4  0.000000D+00  0.000000D+00  0.000000D+00  0.341535D+00
      5  0.000000D+00  0.000000D+00  0.000000D+00  0.000000D+00  0.343476D+00
      6  0.000000D+00  0.000000D+00  0.000000D+00  0.000000D+00  0.000000D+00
      7  0.000000D+00  0.000000D+00  0.000000D+00  0.000000D+00  0.000000D+00
      8  0.000000D+00  0.000000D+00  0.000000D+00  0.000000D+00  0.000000D+00
      9  0.000000D+00  0.000000D+00  0.000000D+00  0.000000D+00  0.000000D+00
     10  0.000000D+00  0.000000D+00  0.000000D+00  0.000000D+00  0.000000D+00
     11  0.000000D+00  0.000000D+00  0.000000D+00  0.000000D+00  0.000000D+00
     12  0.000000D+00  0.000000D+00  0.000000D+00  0.000000D+00  0.000000D+00
     13  0.000000D+00  0.000000D+00  0.000000D+00  0.000000D+00  0.000000D+00
     14  0.000000D+00  0.000000D+00  0.000000D+00  0.000000D+00  0.000000D+00
     15  0.000000D+00  0.000000D+00  0.000000D+00  0.000000D+00  0.000000D+00
     16  0.000000D+00  0.000000D+00  0.000000D+00  0.000000D+00  0.000000D+00
     17  0.000000D+00  0.000000D+00  0.000000D+00  0.000000D+00  0.000000D+00
     18  0.000000D+00  0.000000D+00  0.000000D+00  0.000000D+00  0.000000D+00
                6             7             8             9            10 
      6  0.350355D+00
      7  0.000000D+00  0.340637D+00
      8  0.000000D+00  0.000000D+00  0.242979D+00
      9  0.000000D+00  0.000000D+00  0.424099D-01  0.242403D+00
     10  0.000000D+00  0.000000D+00  0.410377D-01  0.424467D-01  0.243013D+00
     11  0.000000D+00  0.000000D+00  0.000000D+00  0.000000D+00  0.000000D+00
     12  0.000000D+00  0.000000D+00  0.000000D+00  0.000000D+00  0.000000D+00
     13  0.000000D+00  0.000000D+00  0.000000D+00  0.000000D+00  0.000000D+00
     14  0.000000D+00  0.000000D+00 -0.657827D-01  0.151479D-04  0.657969D-01
     15  0.000000D+00  0.000000D+00  0.647339D-01 -0.647018D-01 -0.105786D-02
     16  0.000000D+00  0.000000D+00  0.000000D+00  0.000000D+00  0.000000D+00
     17  0.000000D+00  0.000000D+00  0.000000D+00  0.000000D+00  0.000000D+00
     18  0.000000D+00  0.000000D+00  0.000000D+00  0.000000D+00  0.000000D+00
               11            12            13            14            15 
     11  0.241214D+00
     12  0.412733D-01  0.241215D+00
     13  0.412442D-01  0.412443D-01  0.241227D+00
     14  0.000000D+00  0.000000D+00  0.000000D+00  0.222068D+00
     15  0.000000D+00  0.000000D+00  0.000000D+00 -0.106195D+00  0.223848D+00
     16  0.000000D+00  0.000000D+00  0.000000D+00  0.966973D-02  0.966973D-02
     17 -0.647630D-01 -0.238894D-04  0.647630D-01  0.322324D-02  0.322324D-02
     18  0.647358D-01 -0.647383D-01 -0.277511D-05  0.322324D-02  0.322324D-02
               16            17            18 
     16  0.290092D-01
     17  0.966821D-02  0.225469D+00
     18  0.967113D-02 -0.107919D+00  0.225510D+00
 Leave Link  716 at Thu May 27 13:55:04 2021, MaxMem=   13107200 cpu:       0.0
 (Enter /programs/64bit/g09/g09-gfortran/bin/l103.exe)

 GradGradGradGradGradGradGradGradGradGradGradGradGradGradGradGradGradGrad
 Berny optimization.
 Search for a local minimum.
 Step number   1 out of a maximum of    2
 All quantities printed in internal units (Hartrees-Bohrs-Radians)
 Second derivative matrix not updated -- first step.
 The second derivative matrix:
                          d1        a1        t1        d2        a2
           d1           0.29099
           a1           0.00000   0.24298
           t1          -0.00000  -0.06578   0.22207
           d2           0.00000   0.00000   0.00000   0.34960
           a2          -0.00000   0.04241   0.00002  -0.00000   0.24240
           t2          -0.00000   0.06473  -0.10619  -0.00000  -0.06470
           d3           0.00000  -0.00000   0.00000  -0.00000  -0.00000
           d4          -0.00000   0.00000   0.00000  -0.00000   0.00000
           a3           0.00000   0.04104   0.06580  -0.00000   0.04245
           d5          -0.00000   0.00000  -0.00000   0.00000   0.00000
           a4           0.00000   0.00000   0.00000   0.00000  -0.00000
           t3          -0.00000   0.00000   0.00967   0.00000   0.00000
           d6           0.00000   0.00000  -0.00000   0.00000   0.00000
           a5           0.00000   0.00000  -0.00000   0.00000  -0.00000
           t4          -0.00000   0.00000   0.00322   0.00000  -0.00000
           d7           0.00000   0.00000   0.00000   0.00000   0.00000
           a6           0.00000   0.00000  -0.00000   0.00000  -0.00000
           t5          -0.00000   0.00000   0.00322   0.00000   0.00000
                          t2        d3        d4        a3        d5
           t2           0.22385
           d3          -0.00000   0.34891
           d4          -0.00000   0.00000   0.34154
           a3          -0.00106   0.00000   0.00000   0.24301
           d5          -0.00000  -0.00000  -0.00000   0.00000   0.34348
           a4           0.00000   0.00000   0.00000  -0.00000  -0.00000
           t3           0.00967   0.00000   0.00000   0.00000  -0.00000
           d6          -0.00000  -0.00000   0.00000   0.00000   0.00000
           a5          -0.00000   0.00000  -0.00000   0.00000   0.00000
           t4           0.00322   0.00000   0.00000  -0.00000   0.00000
           d7          -0.00000  -0.00000   0.00000   0.00000   0.00000
           a6           0.00000   0.00000  -0.00000  -0.00000   0.00000
           t5           0.00322   0.00000   0.00000   0.00000  -0.00000
                          a4        t3        d6        a5        t4
           a4           0.24121
           t3          -0.00000   0.02901
           d6           0.00000   0.00000   0.35036
           a5           0.04127   0.00000   0.00000   0.24121
           t4          -0.06476   0.00967   0.00000  -0.00002   0.22547
           d7           0.00000   0.00000   0.00000   0.00000  -0.00000
           a6           0.04124   0.00000  -0.00000   0.04124   0.06476
           t5           0.06474   0.00967   0.00000  -0.06474  -0.10792
                          d7        a6        t5
           d7           0.34064
           a6           0.00000   0.24123
           t5           0.00000  -0.00000   0.22551
     Eigenvalues --- 1000.000001000.000001000.000001000.000001000.00000
     Eigenvalues --- 1000.000001000.000001000.000001000.000001000.00000
     Eigenvalues --- 1000.000001000.000001000.000001000.000001000.00000
     Eigenvalues --- 1000.000001000.000001000.00000
 Angle between quadratic step and forces=  90.00 degrees.
 Linear search not attempted -- first point.
 Variable       Old X    -DE/DX   Delta X   Delta X   Delta X     New X
                                 (Linear)    (Quad)   (Total)
    d1        2.89796   0.00597   0.00000   0.00000   0.00000   2.89796
    a1        1.90887   0.00947   0.00000   0.00000   0.00000   1.90887
    t1        2.09440   0.00024   0.00000   0.00000   0.00000   2.09440
    d2        2.05739   0.00400   0.00000   0.00000   0.00000   2.05739
    a2        1.92446   0.00651   0.00000   0.00000   0.00000   1.92446
    t2       -2.09389   0.00073   0.00000   0.00000   0.00000  -2.09389
    d3        2.05853   0.00354   0.00000   0.00000   0.00000   2.05853
    d4        2.07072  -0.00056   0.00000   0.00000   0.00000   2.07072
    a3        1.90887   0.00953   0.00000   0.00000   0.00000   1.90887
    d5        2.06747   0.00039   0.00000   0.00000   0.00000   2.06747
    a4        1.90915   0.01006   0.00000   0.00000   0.00000   1.90915
    t3        3.14159  -0.00000   0.00000   0.00000   0.00000   3.14159
    d6        2.05617   0.00429   0.00000   0.00000   0.00000   2.05617
    a5        1.90916   0.01003   0.00000   0.00000   0.00000   1.90916
    t4        2.09440   0.00008   0.00000   0.00000   0.00000   2.09440
    d7        2.07223  -0.00129   0.00000   0.00000   0.00000   2.07223
    a6        1.90881   0.00956   0.00000   0.00000   0.00000   1.90881
    t5       -2.09440   0.00015   0.00000   0.00000   0.00000  -2.09440
         Item               Value     Threshold  Converged?
 Maximum Force            0.000000     0.000450     YES
 RMS     Force            0.000000     0.000300     YES
 Maximum Displacement     0.000000     0.001800     YES
 RMS     Displacement     0.000000     0.001200     YES
 Predicted change in Energy=-0.000000D+00
 Optimization completed.
    -- Stationary point found.
                       ----------------------------
                       !   Optimized Parameters   !
                       ! (Angstroms and Degrees)  !
 ----------------------                            ----------------------
 !      Name          Value   Derivative information (Atomic Units)     !
 ------------------------------------------------------------------------
 !       d1          1.5335   -DE/DX =    0.006                         !
 !       a1        109.37     -DE/DX =    0.0095                        !
 !       t1        120.0001   -DE/DX =    0.0002                        !
 !       d2          1.0887   -DE/DX =    0.004                         !
 !       a2        110.2634   -DE/DX =    0.0065                        !
 !       t2       -119.9709   -DE/DX =    0.0007                        !
 !       d3          1.0893   -DE/DX =    0.0035                        !
 !       d4          1.0958   -DE/DX =   -0.0006                        !
 !       a3        109.3701   -DE/DX =    0.0095                        !
 !       d5          1.0941   -DE/DX =    0.0004                        !
 !       a4        109.3863   -DE/DX =    0.0101                        !
 !       t3        180.0      -DE/DX =    0.0                           !
 !       d6          1.0881   -DE/DX =    0.0043                        !
 !       a5        109.3867   -DE/DX =    0.01                          !
 !       t4        120.0      -DE/DX =    0.0001                        !
 !       d7          1.0966   -DE/DX =   -0.0013                        !
 !       a6        109.3668   -DE/DX =    0.0096                        !
 !       t5       -120.0      -DE/DX =    0.0001                        !
 ------------------------------------------------------------------------
 GradGradGradGradGradGradGradGradGradGradGradGradGradGradGradGradGradGrad

 Leave Link  103 at Thu May 27 13:55:04 2021, MaxMem=   13107200 cpu:       0.0
 (Enter /programs/64bit/g09/g09-gfortran/bin/l9999.exe)
 1\1\GINC-MOLMOD\Force\RB3LYP\6-31+G(d,p)\C2H6\OSPITE\27-May-2021\1\\#p
  b3lyp/6-31+g(d,p) force nosym\\c2h6 molecule\\0,1\C\C,1,d1\H,1,d2,2,a
 1\H,1,d3,2,a2,3,t1,0\H,1,d4,2,a3,3,t2,0\H,2,d5,1,a4,3,t3,0\H,2,d6,1,a5
 ,6,t4,0\H,2,d7,1,a6,6,t5,0\\d1=1.53353646\a1=109.37004657\t1=120.00011
 919\d2=1.08872575\a2=110.263411\t2=-119.97086704\d3=1.08932631\d4=1.09
 577636\a3=109.3700522\d5=1.09406027\a4=109.38628007\t3=179.99999825\d6
 =1.08807953\a5=109.38674206\t4=120.00002475\d7=1.09657532\a6=109.36682
 58\t5=-120.00001629\\Version=EM64L-G09RevA.02\HF=-79.8406672\RMSD=1.73
 5e-09\RMSF=3.784e-03\Dipole=0.0016633,-0.0036084,-0.0016818\Quadrupole
 =0.2984493,0.2942117,-0.592661,-0.0043211,0.0095749,0.0085502\PG=C01 [
 X(C2H6)]\\@


            THE IRISH PIG
 'TWAS AN EVENING IN NOVEMBER,
 AS I VERY WELL REMEMBER
 I WAS STROLLING DOWN THE STREET IN DRUNKEN PRIDE,
 BUT MY KNEES WERE ALL A'FLUTTER
 SO I LANDED IN THE GUTTER,
 AND A PIG CAME UP AND LAY DOWN BY MY SIDE.

 YES, I LAY THERE IN THE GUTTER
 THINKING THOUGHTS I COULD NOT UTTER
 WHEN A COLLEEN PASSING BY DID SOFTLY SAY,
 'YE CAN TELL A MAN THAT BOOZES
 BY THE COMPANY THAT HE CHOOSES.' -
 AT THAT, THE PIG GOT UP AND WALKED AWAY!
     -- THE ECONOMIST, AUGUST 23, 1986
 Job cpu time:  0 days  0 hours  0 minutes  6.8 seconds.
 File lengths (MBytes):  RWF=      5 Int=      0 D2E=      0 Chk=      1 Scr=      1
 Normal termination of Gaussian 09 at Thu May 27 13:55:04 2021.
