 Entering Gaussian System, Link 0=g09
 Input=c2h6_021.com
 Output=c2h6_021.log
 Initial command:
 /programs/64bit/g09/g09-gfortran/bin/l1.exe /data/scratch/Gau-17403.inp -scrdir=/data/scratch/
 Entering Link 1 = /programs/64bit/g09/g09-gfortran/bin/l1.exe PID=     17404.
  
 Copyright (c) 1988,1990,1992,1993,1995,1998,2003,2009, Gaussian, Inc.
                  All Rights Reserved.
  
 This is part of the Gaussian(R) 09 program.  It is based on
 the Gaussian(R) 03 system (copyright 2003, Gaussian, Inc.),
 the Gaussian(R) 98 system (copyright 1998, Gaussian, Inc.),
 the Gaussian(R) 94 system (copyright 1995, Gaussian, Inc.),
 the Gaussian 92(TM) system (copyright 1992, Gaussian, Inc.),
 the Gaussian 90(TM) system (copyright 1990, Gaussian, Inc.),
 the Gaussian 88(TM) system (copyright 1988, Gaussian, Inc.),
 the Gaussian 86(TM) system (copyright 1986, Carnegie Mellon
 University), and the Gaussian 82(TM) system (copyright 1983,
 Carnegie Mellon University). Gaussian is a federally registered
 trademark of Gaussian, Inc.
  
 This software contains proprietary and confidential information,
 including trade secrets, belonging to Gaussian, Inc.
  
 This software is provided under written license and may be
 used, copied, transmitted, or stored only in accord with that
 written license.
  
 The following legend is applicable only to US Government
 contracts under FAR:
  
                    RESTRICTED RIGHTS LEGEND
  
 Use, reproduction and disclosure by the US Government is
 subject to restrictions as set forth in subparagraphs (a)
 and (c) of the Commercial Computer Software - Restricted
 Rights clause in FAR 52.227-19.
  
 Gaussian, Inc.
 340 Quinnipiac St., Bldg. 40, Wallingford CT 06492
  
  
 ---------------------------------------------------------------
 Warning -- This program may not be used in any manner that
 competes with the business of Gaussian, Inc. or will provide
 assistance to any competitor of Gaussian, Inc.  The licensee
 of this program is prohibited from giving any competitor of
 Gaussian, Inc. access to this program.  By using this program,
 the user acknowledges that Gaussian, Inc. is engaged in the
 business of creating and licensing software in the field of
 computational chemistry and represents and warrants to the
 licensee that it is not a competitor of Gaussian, Inc. and that
 it will not use this program in any manner prohibited above.
 ---------------------------------------------------------------
  

 Cite this work as:
 Gaussian 09, Revision A.02,
 M. J. Frisch, G. W. Trucks, H. B. Schlegel, G. E. Scuseria, 
 M. A. Robb, J. R. Cheeseman, G. Scalmani, V. Barone, B. Mennucci, 
 G. A. Petersson, H. Nakatsuji, M. Caricato, X. Li, H. P. Hratchian, 
 A. F. Izmaylov, J. Bloino, G. Zheng, J. L. Sonnenberg, M. Hada, 
 M. Ehara, K. Toyota, R. Fukuda, J. Hasegawa, M. Ishida, T. Nakajima, 
 Y. Honda, O. Kitao, H. Nakai, T. Vreven, J. A. Montgomery, Jr., 
 J. E. Peralta, F. Ogliaro, M. Bearpark, J. J. Heyd, E. Brothers, 
 K. N. Kudin, V. N. Staroverov, R. Kobayashi, J. Normand, 
 K. Raghavachari, A. Rendell, J. C. Burant, S. S. Iyengar, J. Tomasi, 
 M. Cossi, N. Rega, J. M. Millam, M. Klene, J. E. Knox, J. B. Cross, 
 V. Bakken, C. Adamo, J. Jaramillo, R. Gomperts, R. E. Stratmann, 
 O. Yazyev, A. J. Austin, R. Cammi, C. Pomelli, J. W. Ochterski, 
 R. L. Martin, K. Morokuma, V. G. Zakrzewski, G. A. Voth, 
 P. Salvador, J. J. Dannenberg, S. Dapprich, A. D. Daniels, 
 O. Farkas, J. B. Foresman, J. V. Ortiz, J. Cioslowski, 
 and D. J. Fox, Gaussian, Inc., Wallingford CT, 2009.
 
 ******************************************
 Gaussian 09:  EM64L-G09RevA.02 11-Jun-2009
                27-May-2021 
 ******************************************
 %chk=c2h6_021.chk
 %mem=100MB
 --------------------------------
 #p b3lyp/6-31+g(d,p) force nosym
 --------------------------------
 1/10=7,30=1,38=1/1,3;
 2/12=2,15=1,17=6,18=5,40=1/2;
 3/5=1,6=6,7=111,11=2,16=1,25=1,30=1,71=1,74=-5/1,2,3;
 4//1;
 5/5=2,38=5/2;
 6/7=2,8=2,9=2,10=2,28=1/1;
 7/29=1,30=1/1,2,3,16;
 1/10=7,30=1/3;
 99//99;
 Leave Link    1 at Thu May 27 13:53:36 2021, MaxMem=   13107200 cpu:       0.0
 (Enter /programs/64bit/g09/g09-gfortran/bin/l101.exe)
 -------------
 c2h6 molecule
 -------------
 Symbolic Z-matrix:
 Charge =  0 Multiplicity = 1
 C1
 C2                   1    d1
 H3                   1    d2       2    a1
 H4                   1    d3       2    a2       3    t1       0
 H5                   1    d4       2    a3       3    t2       0
 H6                   2    d5       1    a4       3    t3       0
 H7                   2    d6       1    a5       6    t4       0
 H8                   2    d7       1    a6       6    t5       0
       Variables:
       Constants:
  d1                    1.54699                  
  a1                  109.0165                   
  t1                  120.00003                  
  d2                    1.09425                  
  a2                  110.01637                  
  t2                 -120.00019                  
  d3                    1.09439                  
  d4                    1.09452                  
  a3                  109.01641                  
  d5                    1.09411                  
  a4                  109.01625                  
  t3                  180.                       
  d6                    1.09437                  
  a5                  109.01619                  
  t4                  120.00002                  
  d7                    1.09406                  
  a6                  109.01615                  
  t5                 -120.00002                  
 
 NAtoms=      8 NQM=      8 NQMF=      0 NMic=      0 NMicF=      0 NTot=      8.
                    Isotopes and Nuclear Properties:
 (Nuclear quadrupole moments (NQMom) in fm**2, nuclear magnetic moments (NMagM)
  in nuclear magnetons)

  Atom         1           2           3           4           5           6           7           8
 IAtWgt=          12          12           1           1           1           1           1           1
 AtmWgt=  12.0000000  12.0000000   1.0078250   1.0078250   1.0078250   1.0078250   1.0078250   1.0078250
 NucSpn=           0           0           1           1           1           1           1           1
 AtZEff=   0.0000000   0.0000000   0.0000000   0.0000000   0.0000000   0.0000000   0.0000000   0.0000000
 NQMom=    0.0000000   0.0000000   0.0000000   0.0000000   0.0000000   0.0000000   0.0000000   0.0000000
 NMagM=    0.0000000   0.0000000   2.7928460   2.7928460   2.7928460   2.7928460   2.7928460   2.7928460
 Leave Link  101 at Thu May 27 13:53:36 2021, MaxMem=   13107200 cpu:       0.0
 (Enter /programs/64bit/g09/g09-gfortran/bin/l103.exe)

 GradGradGradGradGradGradGradGradGradGradGradGradGradGradGradGradGradGrad
 Berny optimization.
 Initialization pass.
                       ----------------------------
                       !    Initial Parameters    !
                       ! (Angstroms and Degrees)  !
 ----------------------                            ----------------------
 !      Name          Value   Derivative information (Atomic Units)     !
 ------------------------------------------------------------------------
 !       d1          1.547    Frozen                                    !
 !       a1        109.0165   Frozen                                    !
 !       t1        120.0      Frozen                                    !
 !       d2          1.0943   Frozen                                    !
 !       a2        110.0164   Frozen                                    !
 !       t2       -120.0002   Frozen                                    !
 !       d3          1.0944   Frozen                                    !
 !       d4          1.0945   Frozen                                    !
 !       a3        109.0164   Frozen                                    !
 !       d5          1.0941   Frozen                                    !
 !       a4        109.0162   Frozen                                    !
 !       t3        180.0      Frozen                                    !
 !       d6          1.0944   Frozen                                    !
 !       a5        109.0162   Frozen                                    !
 !       t4        120.0      Frozen                                    !
 !       d7          1.0941   Frozen                                    !
 !       a6        109.0162   Frozen                                    !
 !       t5       -120.0      Frozen                                    !
 ------------------------------------------------------------------------
 Trust Radius=3.00D-01 FncErr=1.00D-07 GrdErr=1.00D-07
 Number of steps in this run=   2 maximum allowed number of steps=   2.
 GradGradGradGradGradGradGradGradGradGradGradGradGradGradGradGradGradGrad

 Leave Link  103 at Thu May 27 13:53:36 2021, MaxMem=   13107200 cpu:       0.0
 (Enter /programs/64bit/g09/g09-gfortran/bin/l202.exe)
                          Input orientation:                          
 ---------------------------------------------------------------------
 Center     Atomic      Atomic             Coordinates (Angstroms)
 Number     Number       Type             X           Y           Z
 ---------------------------------------------------------------------
      1          6           0        0.000000    0.000000    0.000000
      2          6           0        0.000000    0.000000    1.546994
      3          1           0        1.034535    0.000000   -0.356552
      4          1           0       -0.514143   -0.890520   -0.374598
      5          1           0       -0.517396    0.896149   -0.356637
      6          1           0       -1.034402    0.000000    1.903495
      7          1           0        0.517322   -0.896027    1.903577
      8          1           0        0.517179    0.895780    1.903478
 ---------------------------------------------------------------------
                    Distance matrix (angstroms):
                    1          2          3          4          5
     1  C    0.000000
     2  C    1.546994   0.000000
     3  H    1.094254   2.166506   0.000000
     4  H    1.094391   2.179423   1.786548   0.000000
     5  H    1.094518   2.166700   1.792085   1.786762   0.000000
     6  H    2.166399   1.094112   3.064036   2.500681   2.485674
     7  H    2.166586   1.094367   2.485671   2.500806   3.064491
     8  H    2.166363   1.094065   2.485521   3.073129   2.485652
                    6          7          8
     6  H    0.000000
     7  H    1.791846   0.000000
     8  H    1.791599   1.791808   0.000000
 Symmetry turned off by external request.
 Stoichiometry    C2H6
 Framework group  C1[X(C2H6)]
 Deg. of freedom    18
 Full point group                 C1      NOp   1
 Rotational constants (GHZ):     78.2450714     19.9398097     19.9290829
 Leave Link  202 at Thu May 27 13:53:36 2021, MaxMem=   13107200 cpu:       0.0
 (Enter /programs/64bit/g09/g09-gfortran/bin/l301.exe)
 Standard basis: 6-31+G(d,p) (6D, 7F)
 Ernie: Thresh=  0.10000D-02 Tol=  0.10000D-05 Strict=F.
 Integral buffers will be    131072 words long.
 Raffenetti 2 integral format.
 Two-electron integral symmetry is turned off.
    68 basis functions,   106 primitive gaussians,    68 cartesian basis functions
     9 alpha electrons        9 beta electrons
       nuclear repulsion energy        42.0739151933 Hartrees.
 IExCor=  402 DFT=T Ex+Corr=B3LYP ExCW=0 ScaHFX=  0.200000
 ScaDFX=  0.800000  0.720000  1.000000  0.810000 ScalE2=  1.000000  1.000000
 IRadAn=      0 IRanWt=     -1 IRanGd=            0 ICorTp=0
 NAtoms=    8 NActive=    8 NUniq=    8 SFac= 7.50D-01 NAtFMM=   80 NAOKFM=F Big=F
 Leave Link  301 at Thu May 27 13:53:37 2021, MaxMem=   13107200 cpu:       0.0
 (Enter /programs/64bit/g09/g09-gfortran/bin/l302.exe)
 NPDir=0 NMtPBC=     1 NCelOv=     1 NCel=       1 NClECP=     1 NCelD=      1
         NCelK=      1 NCelE2=     1 NClLst=     1 CellRange=     0.0.
 One-electron integrals computed using PRISM.
 NBasis=    68 RedAO= T  NBF=    68
 NBsUse=    68 1.00D-06 NBFU=    68
 Precomputing XC quadrature grid using
 IXCGrd= 2 IRadAn=           0 IRanWt=          -1 IRanGd=           0 AccXCQ= 1.00D-10.
 NRdTot=     510 NPtTot=       65100 NUsed=       68787 NTot=       68819
 NSgBfM=    68    68    68    68    68 NAtAll=     8     8.
 Leave Link  302 at Thu May 27 13:53:37 2021, MaxMem=   13107200 cpu:       0.1
 (Enter /programs/64bit/g09/g09-gfortran/bin/l303.exe)
 DipDrv:  MaxL=1.
 Leave Link  303 at Thu May 27 13:53:37 2021, MaxMem=   13107200 cpu:       0.0
 (Enter /programs/64bit/g09/g09-gfortran/bin/l401.exe)
 Harris functional with IExCor=  402 diagonalized for initial guess.
 ExpMin= 4.38D-02 ExpMax= 3.05D+03 ExpMxC= 4.57D+02 IAcc=2 IRadAn=         0 AccDes= 0.00D+00
 HarFok:  IExCor=  402 AccDes= 0.00D+00 IRadAn=         0 IDoV= 1
 ScaDFX=  1.000000  1.000000  1.000000  1.000000
 FoFCou: FMM=F IPFlag=           0 FMFlag=      100000 FMFlg1=           0
         NFxFlg=           0 DoJE=T BraDBF=F KetDBF=T FulRan=T
         Omega=  0.000000  0.000000  1.000000  0.000000  0.000000 ICntrl=     500 IOpCl=  0
         NMat0=    1 NMatS0=    1 NMatT0=    0 NMatD0=    1 NMtDS0=    0 NMtDT0=    0
         I1Cent=           4 NGrid=           0.
 Symmetry not used in FoFCou.
 Harris En= -79.8972168049422    
 Leave Link  401 at Thu May 27 13:53:37 2021, MaxMem=   13107200 cpu:       0.6
 (Enter /programs/64bit/g09/g09-gfortran/bin/l502.exe)
 Closed shell SCF:
 Requested convergence on RMS density matrix=1.00D-08 within 128 cycles.
 Requested convergence on MAX density matrix=1.00D-06.
 Requested convergence on             energy=1.00D-06.
 No special actions if energy rises.
 Using DIIS extrapolation, IDIIS=  1040.
 Two-electron integral symmetry not used.
        68702 words used for storage of precomputed grid.
 Keep R1 ints in memory in canonical form, NReq=3743087.
 IEnd=      101552 IEndB=      101552 NGot=    13107200 MDV=    10273922
 LenX=    10273922 LenY=    10268857
 Symmetry not used in FoFDir.
 MinBra= 0 MaxBra= 2 Meth= 1.
 IRaf=       0 NMat=   1 IRICut=       1 DoRegI=T DoRafI=F ISym2E= 0 JSym2E=0.

 Cycle   1  Pass 1  IDiag  1:
 E= -79.7100693002460    
 DIIS: error= 3.96D-02 at cycle   1 NSaved=   1.
 NSaved= 1 IEnMin= 1 EnMin= -79.7100693002460     IErMin= 1 ErrMin= 3.96D-02
 ErrMax= 3.96D-02 EMaxC= 1.00D-01 BMatC= 1.15D-01 BMatP= 1.15D-01
 IDIUse=3 WtCom= 6.04D-01 WtEn= 3.96D-01
 Coeff-Com:  0.100D+01
 Coeff-En:   0.100D+01
 Coeff:      0.100D+01
 Gap=     0.283 Goal=   None    Shift=    0.000
 GapD=    0.283 DampG=1.000 DampE=0.500 DampFc=0.5000 IDamp=-1.
 Damping current iteration by 5.00D-01
 RMSDP=9.57D-03 MaxDP=1.39D-01              OVMax= 2.02D-01

 Cycle   2  Pass 1  IDiag  1:
 E= -79.7643092759126     Delta-E=       -0.054239975667 Rises=F Damp=T
 DIIS: error= 1.15D-02 at cycle   2 NSaved=   2.
 NSaved= 2 IEnMin= 2 EnMin= -79.7643092759126     IErMin= 2 ErrMin= 1.15D-02
 ErrMax= 1.15D-02 EMaxC= 1.00D-01 BMatC= 4.49D-03 BMatP= 1.15D-01
 IDIUse=3 WtCom= 8.85D-01 WtEn= 1.15D-01
 Coeff-Com:  0.108D+00 0.892D+00
 Coeff-En:   0.185D+00 0.815D+00
 Coeff:      0.117D+00 0.883D+00
 Gap=     0.372 Goal=   None    Shift=    0.000
 RMSDP=1.27D-03 MaxDP=9.71D-03 DE=-5.42D-02 OVMax= 1.25D-01

 Cycle   3  Pass 1  IDiag  1:
 E= -79.8403182926827     Delta-E=       -0.076009016770 Rises=F Damp=F
 DIIS: error= 2.27D-03 at cycle   3 NSaved=   3.
 NSaved= 3 IEnMin= 3 EnMin= -79.8403182926827     IErMin= 3 ErrMin= 2.27D-03
 ErrMax= 2.27D-03 EMaxC= 1.00D-01 BMatC= 1.51D-04 BMatP= 4.49D-03
 IDIUse=3 WtCom= 9.77D-01 WtEn= 2.27D-02
 Coeff-Com:  0.713D-02 0.105D+00 0.887D+00
 Coeff-En:   0.000D+00 0.000D+00 0.100D+01
 Coeff:      0.697D-02 0.103D+00 0.890D+00
 Gap=     0.365 Goal=   None    Shift=    0.000
 RMSDP=1.97D-04 MaxDP=2.14D-03 DE=-7.60D-02 OVMax= 4.56D-03

 Cycle   4  Pass 1  IDiag  1:
 E= -79.8404484498965     Delta-E=       -0.000130157214 Rises=F Damp=F
 DIIS: error= 7.01D-04 at cycle   4 NSaved=   4.
 NSaved= 4 IEnMin= 4 EnMin= -79.8404484498965     IErMin= 4 ErrMin= 7.01D-04
 ErrMax= 7.01D-04 EMaxC= 1.00D-01 BMatC= 1.05D-05 BMatP= 1.51D-04
 IDIUse=3 WtCom= 9.93D-01 WtEn= 7.01D-03
 Coeff-Com: -0.503D-03-0.513D-02 0.198D+00 0.807D+00
 Coeff-En:   0.000D+00 0.000D+00 0.000D+00 0.100D+01
 Coeff:     -0.500D-03-0.509D-02 0.197D+00 0.809D+00
 Gap=     0.365 Goal=   None    Shift=    0.000
 RMSDP=4.39D-05 MaxDP=4.48D-04 DE=-1.30D-04 OVMax= 1.22D-03

 Cycle   5  Pass 1  IDiag  1:
 E= -79.8404583974761     Delta-E=       -0.000009947580 Rises=F Damp=F
 DIIS: error= 2.48D-05 at cycle   5 NSaved=   5.
 NSaved= 5 IEnMin= 5 EnMin= -79.8404583974761     IErMin= 5 ErrMin= 2.48D-05
 ErrMax= 2.48D-05 EMaxC= 1.00D-01 BMatC= 2.68D-08 BMatP= 1.05D-05
 IDIUse=1 WtCom= 1.00D+00 WtEn= 0.00D+00
 Coeff-Com:  0.347D-03-0.607D-03-0.228D-02 0.604D-02 0.996D+00
 Coeff:      0.347D-03-0.607D-03-0.228D-02 0.604D-02 0.996D+00
 Gap=     0.365 Goal=   None    Shift=    0.000
 RMSDP=2.82D-06 MaxDP=6.77D-05 DE=-9.95D-06 OVMax= 9.53D-05

 Cycle   6  Pass 1  IDiag  1:
 E= -79.8404584199764     Delta-E=       -0.000000022500 Rises=F Damp=F
 DIIS: error= 1.73D-05 at cycle   6 NSaved=   6.
 NSaved= 6 IEnMin= 6 EnMin= -79.8404584199764     IErMin= 6 ErrMin= 1.73D-05
 ErrMax= 1.73D-05 EMaxC= 1.00D-01 BMatC= 8.38D-09 BMatP= 2.68D-08
 IDIUse=1 WtCom= 1.00D+00 WtEn= 0.00D+00
 Coeff-Com:  0.195D-03-0.224D-03-0.535D-02-0.135D-01 0.526D+00 0.493D+00
 Coeff:      0.195D-03-0.224D-03-0.535D-02-0.135D-01 0.526D+00 0.493D+00
 Gap=     0.365 Goal=   None    Shift=    0.000
 RMSDP=1.07D-06 MaxDP=2.27D-05 DE=-2.25D-08 OVMax= 3.19D-05

 Cycle   7  Pass 1  IDiag  1:
 E= -79.8404584281096     Delta-E=       -0.000000008133 Rises=F Damp=F
 DIIS: error= 1.10D-06 at cycle   7 NSaved=   7.
 NSaved= 7 IEnMin= 7 EnMin= -79.8404584281096     IErMin= 7 ErrMin= 1.10D-06
 ErrMax= 1.10D-06 EMaxC= 1.00D-01 BMatC= 3.99D-11 BMatP= 8.38D-09
 IDIUse=1 WtCom= 1.00D+00 WtEn= 0.00D+00
 Coeff-Com: -0.817D-05 0.514D-05-0.228D-03-0.893D-03-0.819D-02 0.543D-01
 Coeff-Com:  0.955D+00
 Coeff:     -0.817D-05 0.514D-05-0.228D-03-0.893D-03-0.819D-02 0.543D-01
 Coeff:      0.955D+00
 Gap=     0.365 Goal=   None    Shift=    0.000
 RMSDP=9.67D-08 MaxDP=1.61D-06 DE=-8.13D-09 OVMax= 2.15D-06

 Cycle   8  Pass 1  IDiag  1:
 E= -79.8404584281520     Delta-E=       -0.000000000042 Rises=F Damp=F
 DIIS: error= 7.90D-08 at cycle   8 NSaved=   8.
 NSaved= 8 IEnMin= 8 EnMin= -79.8404584281520     IErMin= 8 ErrMin= 7.90D-08
 ErrMax= 7.90D-08 EMaxC= 1.00D-01 BMatC= 3.45D-13 BMatP= 3.99D-11
 IDIUse=1 WtCom= 1.00D+00 WtEn= 0.00D+00
 Coeff-Com: -0.299D-05 0.231D-05-0.402D-04-0.205D-03-0.442D-02 0.128D-01
 Coeff-Com:  0.260D+00 0.732D+00
 Coeff:     -0.299D-05 0.231D-05-0.402D-04-0.205D-03-0.442D-02 0.128D-01
 Coeff:      0.260D+00 0.732D+00
 Gap=     0.365 Goal=   None    Shift=    0.000
 RMSDP=1.30D-08 MaxDP=1.46D-07 DE=-4.24D-11 OVMax= 2.19D-07

 Cycle   9  Pass 1  IDiag  1:
 E= -79.8404584281532     Delta-E=       -0.000000000001 Rises=F Damp=F
 DIIS: error= 1.25D-08 at cycle   9 NSaved=   9.
 NSaved= 9 IEnMin= 9 EnMin= -79.8404584281532     IErMin= 9 ErrMin= 1.25D-08
 ErrMax= 1.25D-08 EMaxC= 1.00D-01 BMatC= 9.36D-15 BMatP= 3.45D-13
 IDIUse=1 WtCom= 1.00D+00 WtEn= 0.00D+00
 Coeff-Com: -0.200D-08 0.128D-06 0.692D-05 0.105D-04-0.316D-03-0.112D-02
 Coeff-Com: -0.131D-01 0.113D+00 0.902D+00
 Coeff:     -0.200D-08 0.128D-06 0.692D-05 0.105D-04-0.316D-03-0.112D-02
 Coeff:     -0.131D-01 0.113D+00 0.902D+00
 Gap=     0.365 Goal=   None    Shift=    0.000
 RMSDP=2.05D-09 MaxDP=2.28D-08 DE=-1.17D-12 OVMax= 4.28D-08

 SCF Done:  E(RB3LYP) =  -79.8404584282     A.U. after    9 cycles
             Convg  =    0.2052D-08             -V/T =  2.0110
 KE= 7.897119569861D+01 PE=-2.678905057663D+02 EE= 6.700493644623D+01
 Leave Link  502 at Thu May 27 13:53:42 2021, MaxMem=   13107200 cpu:       4.8
 (Enter /programs/64bit/g09/g09-gfortran/bin/l601.exe)
 Copying SCF densities to generalized density rwf, IOpCl= 0 IROHF=0.

 **********************************************************************

            Population analysis using the SCF density.

 **********************************************************************

 Alpha  occ. eigenvalues --  -10.17752 -10.17726  -0.75249  -0.61305  -0.43878
 Alpha  occ. eigenvalues --   -0.43809  -0.35622  -0.34770  -0.34735
 Alpha virt. eigenvalues --    0.01742   0.03170   0.05277   0.05292   0.07953
 Alpha virt. eigenvalues --    0.08964   0.08970   0.14225   0.18961   0.19035
 Alpha virt. eigenvalues --    0.20440   0.20566   0.24520   0.29410   0.32782
 Alpha virt. eigenvalues --    0.62125   0.64313   0.64374   0.66427   0.66532
 Alpha virt. eigenvalues --    0.69213   0.92069   0.92122   0.97108   0.97172
 Alpha virt. eigenvalues --    0.99611   1.09614   1.11236   1.32041   1.32279
 Alpha virt. eigenvalues --    1.46258   1.68732   1.68978   1.89311   2.04144
 Alpha virt. eigenvalues --    2.04301   2.08627   2.08768   2.09187   2.09232
 Alpha virt. eigenvalues --    2.29140   2.29465   2.37952   2.49139   2.49519
 Alpha virt. eigenvalues --    2.66065   2.71924   2.80494   2.80530   2.91292
 Alpha virt. eigenvalues --    2.91850   3.22066   3.28162   3.36266   3.36494
 Alpha virt. eigenvalues --    3.52020   3.52052   4.33299   4.58113
          Condensed to atoms (all electrons):
              1          2          3          4          5          6
     1  C    5.102355   0.258471   0.404983   0.404414   0.404975  -0.046489
     2  C    0.258471   5.097152  -0.046302  -0.044669  -0.046298   0.405362
     3  H    0.404983  -0.046302   0.556623  -0.028371  -0.027700   0.004776
     4  H    0.404414  -0.044669  -0.028371   0.555951  -0.028364  -0.004346
     5  H    0.404975  -0.046298  -0.027700  -0.028364   0.556662  -0.004447
     6  H   -0.046489   0.405362   0.004776  -0.004346  -0.004447   0.555809
     7  H   -0.046487   0.405355  -0.004447  -0.004346   0.004772  -0.027824
     8  H   -0.047239   0.406477  -0.004491   0.004682  -0.004491  -0.027992
              7          8
     1  C   -0.046487  -0.047239
     2  C    0.405355   0.406477
     3  H   -0.004447  -0.004491
     4  H   -0.004346   0.004682
     5  H    0.004772  -0.004491
     6  H   -0.027824  -0.027992
     7  H    0.555846  -0.027986
     8  H   -0.027986   0.555648
 Mulliken atomic charges:
              1
     1  C   -0.434982
     2  C   -0.435549
     3  H    0.144930
     4  H    0.145050
     5  H    0.144892
     6  H    0.145152
     7  H    0.145115
     8  H    0.145392
 Sum of Mulliken atomic charges =   0.00000
 Mulliken charges with hydrogens summed into heavy atoms:
              1
     1  C   -0.000111
     2  C    0.000111
 Sum of Mulliken charges with hydrogens summed into heavy atoms =   0.00000
 Electronic spatial extent (au):  <R**2>=            148.6590
 Charge=              0.0000 electrons
 Dipole moment (field-independent basis, Debye):
    X=              0.0001    Y=              0.0002    Z=             -0.0018  Tot=              0.0018
 Quadrupole moment (field-independent basis, Debye-Ang):
   XX=            -14.9423   YY=            -14.9506   ZZ=            -16.1990
   XY=             -0.0072   XZ=              0.0132   YZ=              0.0236
 Traceless Quadrupole moment (field-independent basis, Debye-Ang):
   XX=              0.4217   YY=              0.4134   ZZ=             -0.8350
   XY=             -0.0072   XZ=              0.0132   YZ=              0.0236
 Octapole moment (field-independent basis, Debye-Ang**2):
  XXX=             -0.0136  YYY=             -0.0079  ZZZ=            -37.5798  XYY=              0.0075
  XXY=             -0.0026  XXZ=            -11.5359  XZZ=             -0.0021  YZZ=             -0.0026
  YYZ=            -11.5383  XYZ=             -0.0021
 Hexadecapole moment (field-independent basis, Debye-Ang**3):
 XXXX=            -31.3296 YYYY=            -31.3297 ZZZZ=           -157.7176 XXXY=              0.0057
 XXXZ=             -1.3220 YYYX=              0.0005 YYYZ=              0.0033 ZZZX=              0.0117
 ZZZY=              0.0291 XXYY=            -10.4449 XXZZ=            -29.6232 YYZZ=            -29.6049
 XXYZ=              0.0011 YYXZ=              1.3199 ZZXY=              0.0167
 N-N= 4.207391519328D+01 E-N=-2.678905059290D+02  KE= 7.897119569861D+01
 No NMR shielding tensors so no spin-rotation constants.
 Leave Link  601 at Thu May 27 13:53:42 2021, MaxMem=   13107200 cpu:       0.0
 (Enter /programs/64bit/g09/g09-gfortran/bin/l701.exe)
 Compute integral first derivatives.
 ... and contract with generalized density number  0.
 Leave Link  701 at Thu May 27 13:53:42 2021, MaxMem=   13107200 cpu:       0.0
 (Enter /programs/64bit/g09/g09-gfortran/bin/l702.exe)
 L702 exits ... SP integral derivatives will be done elsewhere.
 Leave Link  702 at Thu May 27 13:53:42 2021, MaxMem=   13107200 cpu:       0.0
 (Enter /programs/64bit/g09/g09-gfortran/bin/l703.exe)
 Compute integral first derivatives, UseDBF=F ICtDFT=           0.
 Integral derivatives from FoFDir, PRISM(SPDF).
 Calling FoFJK, ICntrl=      2127 FMM=F ISym2X=0 I1Cent= 0 IOpClX= 0 NMat=1 NMatS=1 NMatT=0.
 FoFCou: FMM=F IPFlag=           0 FMFlag=      100000 FMFlg1=         800
         NFxFlg=           0 DoJE=F BraDBF=F KetDBF=F FulRan=T
         Omega=  0.000000  0.000000  1.000000  0.000000  0.000000 ICntrl=    2127 IOpCl=  0
         NMat0=    1 NMatS0=    1 NMatT0=    0 NMatD0=    1 NMtDS0=    0 NMtDT0=    0
         I1Cent=           0 NGrid=           0.
 Symmetry not used in FoFCou.
 Leave Link  703 at Thu May 27 13:53:44 2021, MaxMem=   13107200 cpu:       1.1
 (Enter /programs/64bit/g09/g09-gfortran/bin/l716.exe)
 Dipole        = 4.09718239D-05 6.61000887D-05-6.97904644D-04
 -------------------------------------------------------------------
 Center     Atomic                   Forces (Hartrees/Bohr)
 Number     Number              X              Y              Z
 -------------------------------------------------------------------
      1        6           0.000269400    0.000682284    0.012832464
      2        6          -0.000533333   -0.001128766   -0.014872224
      3        1          -0.001528642    0.000483976   -0.004824296
      4        1           0.000594938    0.001044423   -0.003239933
      5        1           0.001253979   -0.001218258   -0.004771780
      6        1           0.001658679   -0.000011977    0.005074814
      7        1          -0.000906777    0.001562639    0.005024961
      8        1          -0.000808244   -0.001414320    0.004775995
 -------------------------------------------------------------------
 Cartesian Forces:  Max     0.014872224 RMS     0.004717203
 -----------------------------------------------------------------------------------------------
                       Internal Coordinate Forces (Hartree/Bohr or radian)
  Cent   Atom   N1       Length/X         N2         Alpha/Y        N3         Beta/Z          J
 -----------------------------------------------------------------------------------------------
      1  C 
      2  C        1   0.000004(     1)
      3  H        1   0.000127(     2)      2   0.010461(     8)
      4  H        1  -0.000020(     3)      2   0.007147(     9)      3   0.000014(    14)     0
      5  H        1  -0.000035(     4)      2   0.010465(    10)      3   0.000932(    15)     0
      6  H        2   0.000085(     5)      1   0.011037(    11)      3   0.000002(    16)     0
      7  H        2  -0.000071(     6)      1   0.011042(    12)      6  -0.000008(    17)     0
      8  H        2   0.000016(     7)      1   0.010433(    13)      6  -0.000014(    18)     0
 -----------------------------------------------------------------------------------------------
 Internal  Forces:  Max     0.011042186 RMS     0.005885576
 Force constants in Cartesian coordinates: 
                1             2             3             4             5 
      1  0.654750D+00
      2 -0.925430D-03  0.653448D+00
      3  0.191122D-02  0.345583D-02  0.594069D+00
      4 -0.851410D-01 -0.162071D-03 -0.750716D-04  0.657250D+00
      5 -0.162070D-03 -0.853241D-01 -0.119628D-03  0.106516D-03  0.657149D+00
      6 -0.235994D-05  0.601614D-05 -0.279083D+00 -0.331470D-04  0.826721D-04
      7 -0.311323D+00 -0.807637D-04  0.824815D-01  0.865234D-02 -0.163719D-05
      8 -0.244839D-03 -0.784532D-01 -0.174641D-03 -0.612758D-05  0.727485D-03
      9  0.926545D-01 -0.234336D-03 -0.103937D+00  0.251047D-01 -0.475031D-05
     10 -0.135901D+00 -0.993961D-01 -0.429705D-01  0.284432D-02  0.360581D-02
     11 -0.994030D-01 -0.250684D+00 -0.744348D-01  0.360593D-02  0.700814D-02
     12 -0.480775D-01 -0.832752D-01 -0.107171D+00 -0.124761D-01 -0.216093D-01
     13 -0.136437D+00  0.100563D+00 -0.413471D-01  0.271153D-02 -0.343473D-02
     14  0.100734D+00 -0.253037D+00  0.712732D-01 -0.343036D-02  0.666620D-02
     15 -0.464883D-01  0.800537D-01 -0.103878D+00 -0.125535D-01  0.217337D-01
     16  0.865255D-02  0.000000D+00  0.000000D+00 -0.311568D+00  0.000000D+00
     17 -0.101360D-04  0.721287D-03  0.000000D+00  0.144162D-04 -0.793625D-01
     18  0.251057D-01  0.000000D+00  0.000000D+00  0.924109D-01 -0.142453D-05
     19  0.270798D-02 -0.344094D-02  0.000000D+00 -0.137330D+00  0.100454D+00
     20 -0.343092D-02  0.666388D-02  0.000000D+00  0.100446D+00 -0.253309D+00
     21 -0.125499D-01  0.217371D-01  0.000000D+00 -0.461663D-01  0.799619D-01
     22  0.269114D-02  0.344190D-02  0.000000D+00 -0.137419D+00 -0.100567D+00
     23  0.344202D-02  0.666570D-02  0.000000D+00 -0.100574D+00 -0.253554D+00
     24 -0.125534D-01 -0.217431D-01  0.000000D+00 -0.462115D-01 -0.800431D-01
                6             7             8             9            10 
      6  0.589135D+00
      7  0.000000D+00  0.312804D+00
      8  0.000000D+00  0.953830D-04  0.585001D-01
      9  0.000000D+00 -0.883591D-01  0.276753D-03  0.868829D-01
     10  0.000000D+00 -0.514470D-02 -0.271981D-01 -0.149273D-01  0.121393D+00
     11  0.000000D+00  0.171520D-02  0.941877D-02  0.497666D-02  0.108600D+00
     12  0.000000D+00  0.298369D-02  0.149389D-01  0.865717D-02  0.461271D-01
     13  0.000000D+00 -0.498806D-02  0.273535D-01 -0.144728D-01  0.168083D-01
     14  0.000000D+00 -0.172819D-02  0.980685D-02 -0.501433D-02  0.143887D-01
     15  0.000000D+00  0.289395D-02 -0.150411D-01  0.839680D-02  0.117707D-01
     16  0.827323D-01  0.000000D+00  0.000000D+00  0.000000D+00  0.000000D+00
     17 -0.421116D-05  0.000000D+00  0.601860D-03  0.000000D+00  0.524394D-03
     18 -0.103366D+00  0.000000D+00  0.000000D+00  0.000000D+00  0.000000D+00
     19 -0.413265D-01  0.000000D+00 -0.521105D-03  0.000000D+00 -0.454033D-03
     20  0.715782D-01  0.000000D+00 -0.300860D-03  0.000000D+00 -0.262136D-03
     21 -0.103310D+00  0.000000D+00  0.000000D+00  0.000000D+00  0.000000D+00
     22 -0.413704D-01  0.000000D+00  0.521248D-03  0.000000D+00  0.454158D-03
     23 -0.716627D-01  0.000000D+00 -0.300943D-03  0.000000D+00 -0.262208D-03
     24 -0.103376D+00  0.000000D+00  0.000000D+00  0.000000D+00  0.000000D+00
               11            12            13            14            15 
     11  0.246793D+00
     12  0.798946D-01  0.898589D-01
     13 -0.145177D-01  0.114428D-01  0.121905D+00
     14 -0.125352D-01  0.100509D-01 -0.109964D+00  0.249100D+00
     15 -0.104365D-01  0.865499D-02  0.443771D-01 -0.763098D-01  0.868264D-01
     16  0.000000D+00  0.000000D+00  0.000000D+00  0.000000D+00  0.000000D+00
     17 -0.302760D-03  0.000000D+00 -0.521099D-03 -0.300859D-03  0.000000D+00
     18  0.000000D+00  0.000000D+00  0.000000D+00  0.000000D+00  0.000000D+00
     19  0.262136D-03  0.000000D+00  0.451180D-03  0.260491D-03  0.000000D+00
     20  0.151345D-03  0.000000D+00  0.260489D-03  0.150394D-03  0.000000D+00
     21  0.000000D+00  0.000000D+00  0.000000D+00  0.000000D+00  0.000000D+00
     22 -0.262209D-03  0.000000D+00 -0.451304D-03 -0.260563D-03  0.000000D+00
     23  0.151386D-03  0.000000D+00  0.260561D-03  0.150436D-03  0.000000D+00
     24  0.000000D+00  0.000000D+00  0.000000D+00  0.000000D+00  0.000000D+00
               16            17            18            19            20 
     16  0.312899D+00
     17  0.000000D+00  0.590193D-01
     18 -0.885506D-01  0.000000D+00  0.864843D-01
     19 -0.499080D-02  0.273604D-01 -0.144810D-01  0.122403D+00
     20 -0.172388D-02  0.981049D-02 -0.500189D-02 -0.109832D+00  0.249226D+00
     21  0.290875D-02 -0.150419D-01  0.843984D-02  0.442347D-01 -0.766167D-01
     22 -0.499218D-02 -0.273680D-01 -0.144850D-01  0.172119D-01  0.145428D-01
     23  0.172436D-02  0.981321D-02  0.500329D-02 -0.145428D-01 -0.123920D-01
     24  0.290954D-02  0.150461D-01  0.844215D-02  0.115728D-01  0.100404D-01
               21            22            23            24 
     21  0.864301D-01
     22  0.115728D-01  0.122505D+00
     23 -0.100404D-01  0.109952D+00  0.249467D+00
     24  0.844016D-02  0.442826D-01  0.766998D-01  0.864940D-01
 Force constants in internal coordinates: 
                1             2             3             4             5 
      1  0.279083D+00
      2  0.000000D+00  0.343257D+00
      3  0.000000D+00  0.000000D+00  0.343101D+00
      4  0.000000D+00  0.000000D+00  0.000000D+00  0.342957D+00
      5  0.000000D+00  0.000000D+00  0.000000D+00  0.000000D+00  0.343417D+00
      6  0.000000D+00  0.000000D+00  0.000000D+00  0.000000D+00  0.000000D+00
      7  0.000000D+00  0.000000D+00  0.000000D+00  0.000000D+00  0.000000D+00
      8  0.000000D+00  0.000000D+00  0.000000D+00  0.000000D+00  0.000000D+00
      9  0.000000D+00  0.000000D+00  0.000000D+00  0.000000D+00  0.000000D+00
     10  0.000000D+00  0.000000D+00  0.000000D+00  0.000000D+00  0.000000D+00
     11  0.000000D+00  0.000000D+00  0.000000D+00  0.000000D+00  0.000000D+00
     12  0.000000D+00  0.000000D+00  0.000000D+00  0.000000D+00  0.000000D+00
     13  0.000000D+00  0.000000D+00  0.000000D+00  0.000000D+00  0.000000D+00
     14  0.000000D+00  0.000000D+00  0.000000D+00  0.000000D+00  0.000000D+00
     15  0.000000D+00  0.000000D+00  0.000000D+00  0.000000D+00  0.000000D+00
     16  0.000000D+00  0.000000D+00  0.000000D+00  0.000000D+00  0.000000D+00
     17  0.000000D+00  0.000000D+00  0.000000D+00  0.000000D+00  0.000000D+00
     18  0.000000D+00  0.000000D+00  0.000000D+00  0.000000D+00  0.000000D+00
                6             7             8             9            10 
      6  0.343128D+00
      7  0.000000D+00  0.343471D+00
      8  0.000000D+00  0.000000D+00  0.241293D+00
      9  0.000000D+00  0.000000D+00  0.416770D-01  0.240589D+00
     10  0.000000D+00  0.000000D+00  0.401789D-01  0.416766D-01  0.241292D+00
     11  0.000000D+00  0.000000D+00  0.000000D+00  0.000000D+00  0.000000D+00
     12  0.000000D+00  0.000000D+00  0.000000D+00  0.000000D+00  0.000000D+00
     13  0.000000D+00  0.000000D+00  0.000000D+00  0.000000D+00  0.000000D+00
     14  0.000000D+00  0.000000D+00 -0.655190D-01  0.000000D+00  0.655187D-01
     15  0.000000D+00  0.000000D+00  0.643304D-01 -0.642824D-01 -0.118303D-02
     16  0.000000D+00  0.000000D+00  0.000000D+00  0.000000D+00  0.000000D+00
     17  0.000000D+00  0.000000D+00  0.000000D+00  0.000000D+00  0.000000D+00
     18  0.000000D+00  0.000000D+00  0.000000D+00  0.000000D+00  0.000000D+00
               11            12            13            14            15 
     11  0.239245D+00
     12  0.403739D-01  0.239245D+00
     13  0.403739D-01  0.403737D-01  0.239245D+00
     14  0.000000D+00  0.000000D+00  0.000000D+00  0.221620D+00
     15  0.000000D+00  0.000000D+00  0.000000D+00 -0.107371D+00  0.223586D+00
     16  0.000000D+00  0.000000D+00  0.000000D+00  0.690000D-02  0.690000D-02
     17 -0.643168D-01  0.000000D+00  0.643167D-01  0.230000D-02  0.230000D-02
     18  0.643168D-01 -0.643167D-01  0.000000D+00  0.230000D-02  0.230000D-02
               16            17            18 
     16  0.207000D-01
     17  0.690005D-02  0.225513D+00
     18  0.689997D-02 -0.109307D+00  0.225513D+00
 Leave Link  716 at Thu May 27 13:53:44 2021, MaxMem=   13107200 cpu:       0.0
 (Enter /programs/64bit/g09/g09-gfortran/bin/l103.exe)

 GradGradGradGradGradGradGradGradGradGradGradGradGradGradGradGradGradGrad
 Berny optimization.
 Search for a local minimum.
 Step number   1 out of a maximum of    2
 All quantities printed in internal units (Hartrees-Bohrs-Radians)
 Second derivative matrix not updated -- first step.
 The second derivative matrix:
                          d1        a1        t1        d2        a2
           d1           0.27908
           a1           0.00000   0.24129
           t1          -0.00000  -0.06552   0.22162
           d2           0.00000   0.00000  -0.00000   0.34326
           a2           0.00000   0.04168  -0.00000   0.00000   0.24059
           t2           0.00000   0.06433  -0.10737   0.00000  -0.06428
           d3          -0.00000   0.00000   0.00000   0.00000  -0.00000
           d4           0.00000  -0.00000  -0.00000  -0.00000  -0.00000
           a3          -0.00000   0.04018   0.06552  -0.00000   0.04168
           d5           0.00000   0.00000   0.00000   0.00000  -0.00000
           a4          -0.00000   0.00000  -0.00000   0.00000   0.00000
           t3           0.00000   0.00000   0.00690   0.00000   0.00000
           d6           0.00000   0.00000  -0.00000   0.00000   0.00000
           a5           0.00000   0.00000   0.00000   0.00000  -0.00000
           t4          -0.00000   0.00000   0.00230   0.00000   0.00000
           d7          -0.00000   0.00000  -0.00000   0.00000   0.00000
           a6          -0.00000   0.00000   0.00000   0.00000  -0.00000
           t5           0.00000   0.00000   0.00230   0.00000   0.00000
                          t2        d3        d4        a3        d5
           t2           0.22359
           d3           0.00000   0.34310
           d4          -0.00000   0.00000   0.34296
           a3          -0.00118   0.00000  -0.00000   0.24129
           d5           0.00000   0.00000  -0.00000  -0.00000   0.34342
           a4          -0.00000  -0.00000   0.00000   0.00000   0.00000
           t3           0.00690  -0.00000   0.00000   0.00000   0.00000
           d6           0.00000  -0.00000  -0.00000   0.00000   0.00000
           a5          -0.00000   0.00000   0.00000  -0.00000   0.00000
           t4           0.00230  -0.00000  -0.00000   0.00000   0.00000
           d7          -0.00000  -0.00000   0.00000  -0.00000  -0.00000
           a6           0.00000   0.00000  -0.00000   0.00000   0.00000
           t5           0.00230  -0.00000   0.00000  -0.00000  -0.00000
                          a4        t3        d6        a5        t4
           a4           0.23925
           t3           0.00000   0.02070
           d6           0.00000  -0.00000   0.34313
           a5           0.04037  -0.00000   0.00000   0.23925
           t4          -0.06432   0.00690  -0.00000  -0.00000   0.22551
           d7          -0.00000   0.00000  -0.00000  -0.00000  -0.00000
           a6           0.04037  -0.00000   0.00000   0.04037   0.06432
           t5           0.06432   0.00690   0.00000  -0.06432  -0.10931
                          d7        a6        t5
           d7           0.34347
           a6          -0.00000   0.23925
           t5           0.00000   0.00000   0.22551
     Eigenvalues --- 1000.000001000.000001000.000001000.000001000.00000
     Eigenvalues --- 1000.000001000.000001000.000001000.000001000.00000
     Eigenvalues --- 1000.000001000.000001000.000001000.000001000.00000
     Eigenvalues --- 1000.000001000.000001000.00000
 Angle between quadratic step and forces=  90.00 degrees.
 Linear search not attempted -- first point.
 Variable       Old X    -DE/DX   Delta X   Delta X   Delta X     New X
                                 (Linear)    (Quad)   (Total)
    d1        2.92339   0.00000   0.00000   0.00000   0.00000   2.92339
    a1        1.90270   0.01046   0.00000   0.00000   0.00000   1.90270
    t1        2.09440   0.00001   0.00000   0.00000   0.00000   2.09440
    d2        2.06784   0.00013   0.00000   0.00000   0.00000   2.06784
    a2        1.92015   0.00715   0.00000   0.00000   0.00000   1.92015
    t2       -2.09440   0.00093   0.00000   0.00000   0.00000  -2.09440
    d3        2.06810  -0.00002   0.00000   0.00000   0.00000   2.06810
    d4        2.06834  -0.00004   0.00000   0.00000   0.00000   2.06834
    a3        1.90270   0.01046   0.00000   0.00000   0.00000   1.90270
    d5        2.06757   0.00009   0.00000   0.00000   0.00000   2.06757
    a4        1.90269   0.01104   0.00000   0.00000   0.00000   1.90269
    t3        3.14159   0.00000   0.00000   0.00000   0.00000   3.14159
    d6        2.06805  -0.00007   0.00000   0.00000   0.00000   2.06805
    a5        1.90269   0.01104   0.00000   0.00000   0.00000   1.90269
    t4        2.09440  -0.00001   0.00000   0.00000   0.00000   2.09440
    d7        2.06748   0.00002   0.00000   0.00000   0.00000   2.06748
    a6        1.90269   0.01043   0.00000   0.00000   0.00000   1.90269
    t5       -2.09440  -0.00001   0.00000   0.00000   0.00000  -2.09440
         Item               Value     Threshold  Converged?
 Maximum Force            0.000000     0.000450     YES
 RMS     Force            0.000000     0.000300     YES
 Maximum Displacement     0.000000     0.001800     YES
 RMS     Displacement     0.000000     0.001200     YES
 Predicted change in Energy=-0.000000D+00
 Optimization completed.
    -- Stationary point found.
                       ----------------------------
                       !   Optimized Parameters   !
                       ! (Angstroms and Degrees)  !
 ----------------------                            ----------------------
 !      Name          Value   Derivative information (Atomic Units)     !
 ------------------------------------------------------------------------
 !       d1          1.547    -DE/DX =    0.0                           !
 !       a1        109.0165   -DE/DX =    0.0105                        !
 !       t1        120.0      -DE/DX =    0.0                           !
 !       d2          1.0943   -DE/DX =    0.0001                        !
 !       a2        110.0164   -DE/DX =    0.0071                        !
 !       t2       -120.0002   -DE/DX =    0.0009                        !
 !       d3          1.0944   -DE/DX =    0.0                           !
 !       d4          1.0945   -DE/DX =    0.0                           !
 !       a3        109.0164   -DE/DX =    0.0105                        !
 !       d5          1.0941   -DE/DX =    0.0001                        !
 !       a4        109.0162   -DE/DX =    0.011                         !
 !       t3        180.0      -DE/DX =    0.0                           !
 !       d6          1.0944   -DE/DX =   -0.0001                        !
 !       a5        109.0162   -DE/DX =    0.011                         !
 !       t4        120.0      -DE/DX =    0.0                           !
 !       d7          1.0941   -DE/DX =    0.0                           !
 !       a6        109.0162   -DE/DX =    0.0104                        !
 !       t5       -120.0      -DE/DX =    0.0                           !
 ------------------------------------------------------------------------
 GradGradGradGradGradGradGradGradGradGradGradGradGradGradGradGradGradGrad

 Leave Link  103 at Thu May 27 13:53:44 2021, MaxMem=   13107200 cpu:       0.0
 (Enter /programs/64bit/g09/g09-gfortran/bin/l9999.exe)
 1\1\GINC-MOLMOD\Force\RB3LYP\6-31+G(d,p)\C2H6\OSPITE\27-May-2021\1\\#p
  b3lyp/6-31+g(d,p) force nosym\\c2h6 molecule\\0,1\C\C,1,d1\H,1,d2,2,a
 1\H,1,d3,2,a2,3,t1,0\H,1,d4,2,a3,3,t2,0\H,2,d5,1,a4,3,t3,0\H,2,d6,1,a5
 ,6,t4,0\H,2,d7,1,a6,6,t5,0\\d1=1.54699399\a1=109.01650134\t1=120.00003
 064\d2=1.09425374\a2=110.01636945\t2=-120.00018741\d3=1.09439131\d4=1.
 09451826\a3=109.01641\d5=1.09411206\a4=109.01624815\t3=179.99999825\d6
 =1.09436699\a5=109.01619204\t4=120.00002425\d7=1.09406486\a6=109.01615
 426\t5=-120.0000191\\Version=EM64L-G09RevA.02\HF=-79.8404584\RMSD=2.05
 2e-09\RMSF=4.717e-03\Dipole=0.000041,0.0000661,-0.0006979\Quadrupole=0
 .3135039,0.3073231,-0.620827,-0.005383,0.0098206,0.0175129\PG=C01 [X(C
 2H6)]\\@


 TO DRY ONE'S EYES AND LAUGH AT A FALL,
 AND BAFFLED, GET UP AND BEGIN AGAIN.
           R. BROWNING
 Job cpu time:  0 days  0 hours  0 minutes  6.8 seconds.
 File lengths (MBytes):  RWF=      5 Int=      0 D2E=      0 Chk=      1 Scr=      1
 Normal termination of Gaussian 09 at Thu May 27 13:53:44 2021.
