 Entering Gaussian System, Link 0=g09
 Input=c2h6_013.com
 Output=c2h6_013.log
 Initial command:
 /programs/64bit/g09/g09-gfortran/bin/l1.exe /data/scratch/Gau-17204.inp -scrdir=/data/scratch/
 Entering Link 1 = /programs/64bit/g09/g09-gfortran/bin/l1.exe PID=     17205.
  
 Copyright (c) 1988,1990,1992,1993,1995,1998,2003,2009, Gaussian, Inc.
                  All Rights Reserved.
  
 This is part of the Gaussian(R) 09 program.  It is based on
 the Gaussian(R) 03 system (copyright 2003, Gaussian, Inc.),
 the Gaussian(R) 98 system (copyright 1998, Gaussian, Inc.),
 the Gaussian(R) 94 system (copyright 1995, Gaussian, Inc.),
 the Gaussian 92(TM) system (copyright 1992, Gaussian, Inc.),
 the Gaussian 90(TM) system (copyright 1990, Gaussian, Inc.),
 the Gaussian 88(TM) system (copyright 1988, Gaussian, Inc.),
 the Gaussian 86(TM) system (copyright 1986, Carnegie Mellon
 University), and the Gaussian 82(TM) system (copyright 1983,
 Carnegie Mellon University). Gaussian is a federally registered
 trademark of Gaussian, Inc.
  
 This software contains proprietary and confidential information,
 including trade secrets, belonging to Gaussian, Inc.
  
 This software is provided under written license and may be
 used, copied, transmitted, or stored only in accord with that
 written license.
  
 The following legend is applicable only to US Government
 contracts under FAR:
  
                    RESTRICTED RIGHTS LEGEND
  
 Use, reproduction and disclosure by the US Government is
 subject to restrictions as set forth in subparagraphs (a)
 and (c) of the Commercial Computer Software - Restricted
 Rights clause in FAR 52.227-19.
  
 Gaussian, Inc.
 340 Quinnipiac St., Bldg. 40, Wallingford CT 06492
  
  
 ---------------------------------------------------------------
 Warning -- This program may not be used in any manner that
 competes with the business of Gaussian, Inc. or will provide
 assistance to any competitor of Gaussian, Inc.  The licensee
 of this program is prohibited from giving any competitor of
 Gaussian, Inc. access to this program.  By using this program,
 the user acknowledges that Gaussian, Inc. is engaged in the
 business of creating and licensing software in the field of
 computational chemistry and represents and warrants to the
 licensee that it is not a competitor of Gaussian, Inc. and that
 it will not use this program in any manner prohibited above.
 ---------------------------------------------------------------
  

 Cite this work as:
 Gaussian 09, Revision A.02,
 M. J. Frisch, G. W. Trucks, H. B. Schlegel, G. E. Scuseria, 
 M. A. Robb, J. R. Cheeseman, G. Scalmani, V. Barone, B. Mennucci, 
 G. A. Petersson, H. Nakatsuji, M. Caricato, X. Li, H. P. Hratchian, 
 A. F. Izmaylov, J. Bloino, G. Zheng, J. L. Sonnenberg, M. Hada, 
 M. Ehara, K. Toyota, R. Fukuda, J. Hasegawa, M. Ishida, T. Nakajima, 
 Y. Honda, O. Kitao, H. Nakai, T. Vreven, J. A. Montgomery, Jr., 
 J. E. Peralta, F. Ogliaro, M. Bearpark, J. J. Heyd, E. Brothers, 
 K. N. Kudin, V. N. Staroverov, R. Kobayashi, J. Normand, 
 K. Raghavachari, A. Rendell, J. C. Burant, S. S. Iyengar, J. Tomasi, 
 M. Cossi, N. Rega, J. M. Millam, M. Klene, J. E. Knox, J. B. Cross, 
 V. Bakken, C. Adamo, J. Jaramillo, R. Gomperts, R. E. Stratmann, 
 O. Yazyev, A. J. Austin, R. Cammi, C. Pomelli, J. W. Ochterski, 
 R. L. Martin, K. Morokuma, V. G. Zakrzewski, G. A. Voth, 
 P. Salvador, J. J. Dannenberg, S. Dapprich, A. D. Daniels, 
 O. Farkas, J. B. Foresman, J. V. Ortiz, J. Cioslowski, 
 and D. J. Fox, Gaussian, Inc., Wallingford CT, 2009.
 
 ******************************************
 Gaussian 09:  EM64L-G09RevA.02 11-Jun-2009
                27-May-2021 
 ******************************************
 %chk=c2h6_013.chk
 %mem=100MB
 --------------------------------
 #p b3lyp/6-31+g(d,p) force nosym
 --------------------------------
 1/10=7,30=1,38=1/1,3;
 2/12=2,15=1,17=6,18=5,40=1/2;
 3/5=1,6=6,7=111,11=2,16=1,25=1,30=1,71=1,74=-5/1,2,3;
 4//1;
 5/5=2,38=5/2;
 6/7=2,8=2,9=2,10=2,28=1/1;
 7/29=1,30=1/1,2,3,16;
 1/10=7,30=1/3;
 99//99;
 Leave Link    1 at Thu May 27 13:52:38 2021, MaxMem=   13107200 cpu:       0.0
 (Enter /programs/64bit/g09/g09-gfortran/bin/l101.exe)
 -------------
 c2h6 molecule
 -------------
 Symbolic Z-matrix:
 Charge =  0 Multiplicity = 1
 C1
 C2                   1    d1
 H3                   1    d2       2    a1
 H4                   1    d3       2    a2       3    t1       0
 H5                   1    d4       2    a3       3    t2       0
 H6                   2    d5       1    a4       3    t3       0
 H7                   2    d6       1    a5       6    t4       0
 H8                   2    d7       1    a6       6    t5       0
       Variables:
       Constants:
  d1                    1.59913                  
  a1                  108.97397                  
  t1                  120.00002                  
  d2                    1.18455                  
  a2                  109.97323                  
  t2                 -119.99952                  
  d3                    1.21225                  
  d4                    1.22599                  
  a3                  108.97389                  
  d5                    1.18625                  
  a4                  108.97452                  
  t3                  180.                       
  d6                    1.2198                   
  a5                  108.97439                  
  t4                  120.00002                  
  d7                    1.22585                  
  a6                  108.97436                  
  t5                 -120.00001                  
 
 NAtoms=      8 NQM=      8 NQMF=      0 NMic=      0 NMicF=      0 NTot=      8.
                    Isotopes and Nuclear Properties:
 (Nuclear quadrupole moments (NQMom) in fm**2, nuclear magnetic moments (NMagM)
  in nuclear magnetons)

  Atom         1           2           3           4           5           6           7           8
 IAtWgt=          12          12           1           1           1           1           1           1
 AtmWgt=  12.0000000  12.0000000   1.0078250   1.0078250   1.0078250   1.0078250   1.0078250   1.0078250
 NucSpn=           0           0           1           1           1           1           1           1
 AtZEff=   0.0000000   0.0000000   0.0000000   0.0000000   0.0000000   0.0000000   0.0000000   0.0000000
 NQMom=    0.0000000   0.0000000   0.0000000   0.0000000   0.0000000   0.0000000   0.0000000   0.0000000
 NMagM=    0.0000000   0.0000000   2.7928460   2.7928460   2.7928460   2.7928460   2.7928460   2.7928460
 Leave Link  101 at Thu May 27 13:52:38 2021, MaxMem=   13107200 cpu:       0.0
 (Enter /programs/64bit/g09/g09-gfortran/bin/l103.exe)

 GradGradGradGradGradGradGradGradGradGradGradGradGradGradGradGradGradGrad
 Berny optimization.
 Initialization pass.
                       ----------------------------
                       !    Initial Parameters    !
                       ! (Angstroms and Degrees)  !
 ----------------------                            ----------------------
 !      Name          Value   Derivative information (Atomic Units)     !
 ------------------------------------------------------------------------
 !       d1          1.5991   Frozen                                    !
 !       a1        108.974    Frozen                                    !
 !       t1        120.0      Frozen                                    !
 !       d2          1.1845   Frozen                                    !
 !       a2        109.9732   Frozen                                    !
 !       t2       -119.9995   Frozen                                    !
 !       d3          1.2123   Frozen                                    !
 !       d4          1.226    Frozen                                    !
 !       a3        108.9739   Frozen                                    !
 !       d5          1.1862   Frozen                                    !
 !       a4        108.9745   Frozen                                    !
 !       t3        180.0      Frozen                                    !
 !       d6          1.2198   Frozen                                    !
 !       a5        108.9744   Frozen                                    !
 !       t4        120.0      Frozen                                    !
 !       d7          1.2258   Frozen                                    !
 !       a6        108.9744   Frozen                                    !
 !       t5       -120.0      Frozen                                    !
 ------------------------------------------------------------------------
 Trust Radius=3.00D-01 FncErr=1.00D-07 GrdErr=1.00D-07
 Number of steps in this run=   2 maximum allowed number of steps=   2.
 GradGradGradGradGradGradGradGradGradGradGradGradGradGradGradGradGradGrad

 Leave Link  103 at Thu May 27 13:52:38 2021, MaxMem=   13107200 cpu:       0.0
 (Enter /programs/64bit/g09/g09-gfortran/bin/l202.exe)
                          Input orientation:                          
 ---------------------------------------------------------------------
 Center     Atomic      Atomic             Coordinates (Angstroms)
 Number     Number       Type             X           Y           Z
 ---------------------------------------------------------------------
      1          6           0        0.000000    0.000000    0.000000
      2          6           0        0.000000    0.000000    1.599130
      3          1           0        1.120185    0.000000   -0.385141
      4          1           0       -0.569668   -0.986694   -0.414082
      5          1           0       -0.579679    1.004052   -0.398614
      6          1           0       -1.121792    0.000000    1.984836
      7          1           0        0.576760   -0.998977    1.995742
      8          1           0        0.579621    1.003933    1.997709
 ---------------------------------------------------------------------
                    Distance matrix (angstroms):
                    1          2          3          4          5
     1  C    0.000000
     2  C    1.599130   0.000000
     3  H    1.184545   2.278628   0.000000
     4  H    1.212250   2.313246   1.957040   0.000000
     5  H    1.225986   2.309790   1.974294   1.990831   0.000000
     6  H    2.279910   1.186249   3.262400   2.652020   2.642506
     7  H    2.305124   1.219799   2.638536   2.668651   3.329026
     8  H    2.309693   1.225849   2.641603   3.331695   2.662018
                    6          7          8
     6  H    0.000000
     7  H    1.970572   0.000000
     8  H    1.975564   2.002913   0.000000
 Symmetry turned off by external request.
 Stoichiometry    C2H6
 Framework group  C1[X(C2H6)]
 Deg. of freedom    18
 Full point group                 C1      NOp   1
 Rotational constants (GHZ):     64.0489287     18.1367680     18.0398699
 Leave Link  202 at Thu May 27 13:52:38 2021, MaxMem=   13107200 cpu:       0.0
 (Enter /programs/64bit/g09/g09-gfortran/bin/l301.exe)
 Standard basis: 6-31+G(d,p) (6D, 7F)
 Ernie: Thresh=  0.10000D-02 Tol=  0.10000D-05 Strict=F.
 Integral buffers will be    131072 words long.
 Raffenetti 2 integral format.
 Two-electron integral symmetry is turned off.
    68 basis functions,   106 primitive gaussians,    68 cartesian basis functions
     9 alpha electrons        9 beta electrons
       nuclear repulsion energy        39.2397758649 Hartrees.
 IExCor=  402 DFT=T Ex+Corr=B3LYP ExCW=0 ScaHFX=  0.200000
 ScaDFX=  0.800000  0.720000  1.000000  0.810000 ScalE2=  1.000000  1.000000
 IRadAn=      0 IRanWt=     -1 IRanGd=            0 ICorTp=0
 NAtoms=    8 NActive=    8 NUniq=    8 SFac= 7.50D-01 NAtFMM=   80 NAOKFM=F Big=F
 Leave Link  301 at Thu May 27 13:52:38 2021, MaxMem=   13107200 cpu:       0.0
 (Enter /programs/64bit/g09/g09-gfortran/bin/l302.exe)
 NPDir=0 NMtPBC=     1 NCelOv=     1 NCel=       1 NClECP=     1 NCelD=      1
         NCelK=      1 NCelE2=     1 NClLst=     1 CellRange=     0.0.
 One-electron integrals computed using PRISM.
 NBasis=    68 RedAO= T  NBF=    68
 NBsUse=    68 1.00D-06 NBFU=    68
 Precomputing XC quadrature grid using
 IXCGrd= 2 IRadAn=           0 IRanWt=          -1 IRanGd=           0 AccXCQ= 1.00D-10.
 NRdTot=     510 NPtTot=       65100 NUsed=       68787 NTot=       68819
 NSgBfM=    68    68    68    68    68 NAtAll=     8     8.
 Leave Link  302 at Thu May 27 13:52:38 2021, MaxMem=   13107200 cpu:       0.1
 (Enter /programs/64bit/g09/g09-gfortran/bin/l303.exe)
 DipDrv:  MaxL=1.
 Leave Link  303 at Thu May 27 13:52:38 2021, MaxMem=   13107200 cpu:       0.0
 (Enter /programs/64bit/g09/g09-gfortran/bin/l401.exe)
 Harris functional with IExCor=  402 diagonalized for initial guess.
 ExpMin= 4.38D-02 ExpMax= 3.05D+03 ExpMxC= 4.57D+02 IAcc=2 IRadAn=         0 AccDes= 0.00D+00
 HarFok:  IExCor=  402 AccDes= 0.00D+00 IRadAn=         0 IDoV= 1
 ScaDFX=  1.000000  1.000000  1.000000  1.000000
 FoFCou: FMM=F IPFlag=           0 FMFlag=      100000 FMFlg1=           0
         NFxFlg=           0 DoJE=T BraDBF=F KetDBF=T FulRan=T
         Omega=  0.000000  0.000000  1.000000  0.000000  0.000000 ICntrl=     500 IOpCl=  0
         NMat0=    1 NMatS0=    1 NMatT0=    0 NMatD0=    1 NMtDS0=    0 NMtDT0=    0
         I1Cent=           4 NGrid=           0.
 Symmetry not used in FoFCou.
 Harris En= -79.8114554912404    
 Leave Link  401 at Thu May 27 13:52:38 2021, MaxMem=   13107200 cpu:       0.6
 (Enter /programs/64bit/g09/g09-gfortran/bin/l502.exe)
 Closed shell SCF:
 Requested convergence on RMS density matrix=1.00D-08 within 128 cycles.
 Requested convergence on MAX density matrix=1.00D-06.
 Requested convergence on             energy=1.00D-06.
 No special actions if energy rises.
 Using DIIS extrapolation, IDIIS=  1040.
 Two-electron integral symmetry not used.
        68702 words used for storage of precomputed grid.
 Keep R1 ints in memory in canonical form, NReq=3743087.
 IEnd=      101552 IEndB=      101552 NGot=    13107200 MDV=    10273922
 LenX=    10273922 LenY=    10268857
 Symmetry not used in FoFDir.
 MinBra= 0 MaxBra= 2 Meth= 1.
 IRaf=       0 NMat=   1 IRICut=       1 DoRegI=T DoRafI=F ISym2E= 0 JSym2E=0.

 Cycle   1  Pass 1  IDiag  1:
 E= -79.7105778455738    
 DIIS: error= 3.30D-02 at cycle   1 NSaved=   1.
 NSaved= 1 IEnMin= 1 EnMin= -79.7105778455738     IErMin= 1 ErrMin= 3.30D-02
 ErrMax= 3.30D-02 EMaxC= 1.00D-01 BMatC= 7.43D-02 BMatP= 7.43D-02
 IDIUse=3 WtCom= 6.70D-01 WtEn= 3.30D-01
 Coeff-Com:  0.100D+01
 Coeff-En:   0.100D+01
 Coeff:      0.100D+01
 Gap=     0.293 Goal=   None    Shift=    0.000
 GapD=    0.293 DampG=1.000 DampE=0.500 DampFc=0.5000 IDamp=-1.
 Damping current iteration by 5.00D-01
 RMSDP=8.23D-03 MaxDP=1.17D-01              OVMax= 1.78D-01

 Cycle   2  Pass 1  IDiag  1:
 E= -79.7423420636026     Delta-E=       -0.031764218029 Rises=F Damp=T
 DIIS: error= 1.19D-02 at cycle   2 NSaved=   2.
 NSaved= 2 IEnMin= 2 EnMin= -79.7423420636026     IErMin= 2 ErrMin= 1.19D-02
 ErrMax= 1.19D-02 EMaxC= 1.00D-01 BMatC= 5.45D-03 BMatP= 7.43D-02
 IDIUse=3 WtCom= 8.81D-01 WtEn= 1.19D-01
 Coeff-Com:  0.167D+00 0.833D+00
 Coeff-En:   0.272D+00 0.728D+00
 Coeff:      0.179D+00 0.821D+00
 Gap=     0.359 Goal=   None    Shift=    0.000
 RMSDP=1.06D-03 MaxDP=1.06D-02 DE=-3.18D-02 OVMax= 1.09D-01

 Cycle   3  Pass 1  IDiag  1:
 E= -79.7985001297635     Delta-E=       -0.056158066161 Rises=F Damp=F
 DIIS: error= 1.09D-03 at cycle   3 NSaved=   3.
 NSaved= 3 IEnMin= 3 EnMin= -79.7985001297635     IErMin= 3 ErrMin= 1.09D-03
 ErrMax= 1.09D-03 EMaxC= 1.00D-01 BMatC= 6.81D-05 BMatP= 5.45D-03
 IDIUse=3 WtCom= 9.89D-01 WtEn= 1.09D-02
 Coeff-Com:  0.159D-01 0.406D-01 0.944D+00
 Coeff-En:   0.000D+00 0.000D+00 0.100D+01
 Coeff:      0.157D-01 0.402D-01 0.944D+00
 Gap=     0.342 Goal=   None    Shift=    0.000
 RMSDP=1.38D-04 MaxDP=1.66D-03 DE=-5.62D-02 OVMax= 3.47D-03

 Cycle   4  Pass 1  IDiag  1:
 E= -79.7985607957906     Delta-E=       -0.000060666027 Rises=F Damp=F
 DIIS: error= 4.98D-04 at cycle   4 NSaved=   4.
 NSaved= 4 IEnMin= 4 EnMin= -79.7985607957906     IErMin= 4 ErrMin= 4.98D-04
 ErrMax= 4.98D-04 EMaxC= 1.00D-01 BMatC= 7.15D-06 BMatP= 6.81D-05
 IDIUse=3 WtCom= 9.95D-01 WtEn= 4.98D-03
 Coeff-Com:  0.240D-02-0.647D-02 0.238D+00 0.766D+00
 Coeff-En:   0.000D+00 0.000D+00 0.000D+00 0.100D+01
 Coeff:      0.239D-02-0.644D-02 0.236D+00 0.768D+00
 Gap=     0.342 Goal=   None    Shift=    0.000
 RMSDP=3.64D-05 MaxDP=4.01D-04 DE=-6.07D-05 OVMax= 1.04D-03

 Cycle   5  Pass 1  IDiag  1:
 E= -79.7985677678043     Delta-E=       -0.000006972014 Rises=F Damp=F
 DIIS: error= 5.97D-05 at cycle   5 NSaved=   5.
 NSaved= 5 IEnMin= 5 EnMin= -79.7985677678043     IErMin= 5 ErrMin= 5.97D-05
 ErrMax= 5.97D-05 EMaxC= 1.00D-01 BMatC= 1.19D-07 BMatP= 7.15D-06
 IDIUse=1 WtCom= 1.00D+00 WtEn= 0.00D+00
 Coeff-Com:  0.876D-03-0.251D-02 0.636D-01 0.224D+00 0.714D+00
 Coeff:      0.876D-03-0.251D-02 0.636D-01 0.224D+00 0.714D+00
 Gap=     0.342 Goal=   None    Shift=    0.000
 RMSDP=5.80D-06 MaxDP=1.31D-04 DE=-6.97D-06 OVMax= 1.78D-04

 Cycle   6  Pass 1  IDiag  1:
 E= -79.7985678414023     Delta-E=       -0.000000073598 Rises=F Damp=F
 DIIS: error= 4.15D-05 at cycle   6 NSaved=   6.
 NSaved= 6 IEnMin= 6 EnMin= -79.7985678414023     IErMin= 6 ErrMin= 4.15D-05
 ErrMax= 4.15D-05 EMaxC= 1.00D-01 BMatC= 4.84D-08 BMatP= 1.19D-07
 IDIUse=1 WtCom= 1.00D+00 WtEn= 0.00D+00
 Coeff-Com:  0.129D-03-0.367D-03-0.747D-02-0.126D-01 0.408D+00 0.612D+00
 Coeff:      0.129D-03-0.367D-03-0.747D-02-0.126D-01 0.408D+00 0.612D+00
 Gap=     0.342 Goal=   None    Shift=    0.000
 RMSDP=2.40D-06 MaxDP=5.56D-05 DE=-7.36D-08 OVMax= 7.40D-05

 Cycle   7  Pass 1  IDiag  1:
 E= -79.7985678908303     Delta-E=       -0.000000049428 Rises=F Damp=F
 DIIS: error= 2.77D-07 at cycle   7 NSaved=   7.
 NSaved= 7 IEnMin= 7 EnMin= -79.7985678908303     IErMin= 7 ErrMin= 2.77D-07
 ErrMax= 2.77D-07 EMaxC= 1.00D-01 BMatC= 1.16D-11 BMatP= 4.84D-08
 IDIUse=1 WtCom= 1.00D+00 WtEn= 0.00D+00
 Coeff-Com:  0.297D-05-0.287D-05-0.769D-03-0.208D-02 0.178D-01 0.350D-01
 Coeff-Com:  0.950D+00
 Coeff:      0.297D-05-0.287D-05-0.769D-03-0.208D-02 0.178D-01 0.350D-01
 Coeff:      0.950D+00
 Gap=     0.342 Goal=   None    Shift=    0.000
 RMSDP=8.81D-08 MaxDP=8.33D-07 DE=-4.94D-08 OVMax= 1.88D-06

 Cycle   8  Pass 1  IDiag  1:
 E= -79.7985678908444     Delta-E=       -0.000000000014 Rises=F Damp=F
 DIIS: error= 1.61D-07 at cycle   8 NSaved=   8.
 NSaved= 8 IEnMin= 8 EnMin= -79.7985678908444     IErMin= 8 ErrMin= 1.61D-07
 ErrMax= 1.61D-07 EMaxC= 1.00D-01 BMatC= 1.28D-12 BMatP= 1.16D-11
 IDIUse=1 WtCom= 1.00D+00 WtEn= 0.00D+00
 Coeff-Com: -0.160D-05 0.432D-05-0.990D-04-0.383D-03-0.783D-03 0.106D-02
 Coeff-Com:  0.255D+00 0.746D+00
 Coeff:     -0.160D-05 0.432D-05-0.990D-04-0.383D-03-0.783D-03 0.106D-02
 Coeff:      0.255D+00 0.746D+00
 Gap=     0.342 Goal=   None    Shift=    0.000
 RMSDP=2.60D-08 MaxDP=3.52D-07 DE=-1.40D-11 OVMax= 5.16D-07

 Cycle   9  Pass 1  IDiag  1:
 E= -79.7985678908465     Delta-E=       -0.000000000002 Rises=F Damp=F
 DIIS: error= 2.89D-08 at cycle   9 NSaved=   9.
 NSaved= 9 IEnMin= 9 EnMin= -79.7985678908465     IErMin= 9 ErrMin= 2.89D-08
 ErrMax= 2.89D-08 EMaxC= 1.00D-01 BMatC= 3.67D-14 BMatP= 1.28D-12
 IDIUse=1 WtCom= 1.00D+00 WtEn= 0.00D+00
 Coeff-Com: -0.609D-06 0.985D-06 0.225D-05-0.244D-04-0.690D-03-0.807D-03
 Coeff-Com:  0.246D-01 0.170D+00 0.807D+00
 Coeff:     -0.609D-06 0.985D-06 0.225D-05-0.244D-04-0.690D-03-0.807D-03
 Coeff:      0.246D-01 0.170D+00 0.807D+00
 Gap=     0.342 Goal=   None    Shift=    0.000
 RMSDP=4.03D-09 MaxDP=5.70D-08 DE=-2.10D-12 OVMax= 8.07D-08

 SCF Done:  E(RB3LYP) =  -79.7985678908     A.U. after    9 cycles
             Convg  =    0.4027D-08             -V/T =  2.0214
 KE= 7.812726555114D+01 PE=-2.615186147424D+02 EE= 6.435300543547D+01
 Leave Link  502 at Thu May 27 13:52:44 2021, MaxMem=   13107200 cpu:       4.9
 (Enter /programs/64bit/g09/g09-gfortran/bin/l601.exe)
 Copying SCF densities to generalized density rwf, IOpCl= 0 IROHF=0.

 **********************************************************************

            Population analysis using the SCF density.

 **********************************************************************

 Alpha  occ. eigenvalues --  -10.21968 -10.21864  -0.72579  -0.58626  -0.41931
 Alpha  occ. eigenvalues --   -0.41445  -0.35114  -0.33745  -0.33288
 Alpha virt. eigenvalues --    0.00949   0.02504   0.04858   0.04936   0.07425
 Alpha virt. eigenvalues --    0.08679   0.08692   0.12528   0.15512   0.15939
 Alpha virt. eigenvalues --    0.16381   0.16508   0.22127   0.25798   0.27873
 Alpha virt. eigenvalues --    0.63874   0.65469   0.65577   0.65601   0.66126
 Alpha virt. eigenvalues --    0.66812   0.88974   0.89332   0.95414   0.95935
 Alpha virt. eigenvalues --    0.96001   1.00067   1.03618   1.34297   1.34484
 Alpha virt. eigenvalues --    1.42231   1.69045   1.69492   1.79927   1.89170
 Alpha virt. eigenvalues --    1.90781   1.93170   1.94792   2.01634   2.01764
 Alpha virt. eigenvalues --    2.21358   2.22608   2.36957   2.38136   2.38453
 Alpha virt. eigenvalues --    2.50281   2.54333   2.57924   2.60182   2.67926
 Alpha virt. eigenvalues --    2.68395   2.92980   3.04766   3.16864   3.20300
 Alpha virt. eigenvalues --    3.28500   3.32424   4.26781   4.50764
          Condensed to atoms (all electrons):
              1          2          3          4          5          6
     1  C    5.134200   0.253392   0.384057   0.381063   0.381066  -0.041986
     2  C    0.253392   5.129553  -0.041888  -0.039303  -0.040852   0.383921
     3  H    0.384057  -0.041888   0.567791  -0.024380  -0.023311   0.003336
     4  H    0.381063  -0.039303  -0.024380   0.573622  -0.023220  -0.003127
     5  H    0.381066  -0.040852  -0.023311  -0.023220   0.577026  -0.003202
     6  H   -0.041986   0.383921   0.003336  -0.003127  -0.003202   0.567430
     7  H   -0.040782   0.381041  -0.003201  -0.003049   0.003035  -0.023701
     8  H   -0.041719   0.382135  -0.003245   0.002995  -0.003170  -0.023572
              7          8
     1  C   -0.040782  -0.041719
     2  C    0.381041   0.382135
     3  H   -0.003201  -0.003245
     4  H   -0.003049   0.002995
     5  H    0.003035  -0.003170
     6  H   -0.023701  -0.023572
     7  H    0.575298  -0.022714
     8  H   -0.022714   0.575843
 Mulliken atomic charges:
              1
     1  C   -0.409292
     2  C   -0.407999
     3  H    0.140841
     4  H    0.135399
     5  H    0.132628
     6  H    0.140900
     7  H    0.134074
     8  H    0.133448
 Sum of Mulliken atomic charges =  -0.00000
 Mulliken charges with hydrogens summed into heavy atoms:
              1
     1  C   -0.000423
     2  C    0.000423
 Sum of Mulliken charges with hydrogens summed into heavy atoms =  -0.00000
 Electronic spatial extent (au):  <R**2>=            162.5575
 Charge=             -0.0000 electrons
 Dipole moment (field-independent basis, Debye):
    X=             -0.0016    Y=             -0.0156    Z=             -0.0051  Tot=              0.0165
 Quadrupole moment (field-independent basis, Debye-Ang):
   XX=            -15.4484   YY=            -15.4614   ZZ=            -16.9082
   XY=             -0.0065   XZ=             -0.0551   YZ=              0.0218
 Traceless Quadrupole moment (field-independent basis, Debye-Ang):
   XX=              0.4909   YY=              0.4779   ZZ=             -0.9689
   XY=             -0.0065   XZ=             -0.0551   YZ=              0.0218
 Octapole moment (field-independent basis, Debye-Ang**2):
  XXX=             -0.0337  YYY=             -0.1035  ZZZ=            -40.5902  XYY=              0.0133
  XXY=             -0.0345  XXZ=            -12.3371  XZZ=             -0.1204  YZZ=             -0.0564
  YYZ=            -12.3435  XYZ=              0.0001
 Hexadecapole moment (field-independent basis, Debye-Ang**3):
 XXXX=            -36.6460 YYYY=            -37.8013 ZZZZ=           -178.8998 XXXY=              0.0404
 XXXZ=             -2.5985 YYYX=              0.0252 YYYZ=             -0.0240 ZZZX=             -0.8231
 ZZZY=             -0.0265 XXYY=            -12.3512 XXZZ=            -33.2063 YYZZ=            -33.3423
 XXYZ=             -0.0081 YYXZ=              1.8735 ZZXY=              0.0377
 N-N= 3.923977586491D+01 E-N=-2.615186141511D+02  KE= 7.812726555114D+01
 No NMR shielding tensors so no spin-rotation constants.
 Leave Link  601 at Thu May 27 13:52:44 2021, MaxMem=   13107200 cpu:       0.0
 (Enter /programs/64bit/g09/g09-gfortran/bin/l701.exe)
 Compute integral first derivatives.
 ... and contract with generalized density number  0.
 Leave Link  701 at Thu May 27 13:52:44 2021, MaxMem=   13107200 cpu:       0.0
 (Enter /programs/64bit/g09/g09-gfortran/bin/l702.exe)
 L702 exits ... SP integral derivatives will be done elsewhere.
 Leave Link  702 at Thu May 27 13:52:44 2021, MaxMem=   13107200 cpu:       0.0
 (Enter /programs/64bit/g09/g09-gfortran/bin/l703.exe)
 Compute integral first derivatives, UseDBF=F ICtDFT=           0.
 Integral derivatives from FoFDir, PRISM(SPDF).
 Calling FoFJK, ICntrl=      2127 FMM=F ISym2X=0 I1Cent= 0 IOpClX= 0 NMat=1 NMatS=1 NMatT=0.
 FoFCou: FMM=F IPFlag=           0 FMFlag=      100000 FMFlg1=         800
         NFxFlg=           0 DoJE=F BraDBF=F KetDBF=F FulRan=T
         Omega=  0.000000  0.000000  1.000000  0.000000  0.000000 ICntrl=    2127 IOpCl=  0
         NMat0=    1 NMatS0=    1 NMatT0=    0 NMatD0=    1 NMtDS0=    0 NMtDT0=    0
         I1Cent=           0 NGrid=           0.
 Symmetry not used in FoFCou.
 Leave Link  703 at Thu May 27 13:52:45 2021, MaxMem=   13107200 cpu:       1.1
 (Enter /programs/64bit/g09/g09-gfortran/bin/l716.exe)
 Dipole        =-6.47212004D-04-6.14515116D-03-2.00610165D-03
 -------------------------------------------------------------------
 Center     Atomic                   Forces (Hartrees/Bohr)
 Number     Number              X              Y              Z
 -------------------------------------------------------------------
      1        6          -0.008352748    0.003766613   -0.011542844
      2        6           0.008769367    0.000575913    0.009890536
      3        1          -0.045687337    0.000575792    0.010409543
      4        1           0.026382546    0.046673230    0.016049432
      5        1           0.029072021   -0.050210637    0.015211874
      6        1           0.046526504    0.000064473   -0.010388723
      7        1          -0.027902154    0.049220331   -0.014399598
      8        1          -0.028808199   -0.050665715   -0.015230221
 -------------------------------------------------------------------
 Cartesian Forces:  Max     0.050665715 RMS     0.027859789
 -----------------------------------------------------------------------------------------------
                       Internal Coordinate Forces (Hartree/Bohr or radian)
  Cent   Atom   N1       Length/X         N2         Alpha/Y        N3         Beta/Z          J
 -----------------------------------------------------------------------------------------------
      1  C 
      2  C        1  -0.030128(     1)
      3  H        1  -0.046590(     2)      2   0.011216(     8)
      4  H        1  -0.055869(     3)      2   0.007396(     9)      3   0.001052(    14)     0
      5  H        1  -0.059813(     4)      2   0.010377(    10)      3   0.000158(    15)     0
      6  H        2  -0.047376(     5)      1   0.011889(    11)      3  -0.000006(    16)     0
      7  H        2  -0.058185(     6)      1   0.011015(    12)      6   0.000973(    17)     0
      8  H        2  -0.060067(     7)      1   0.010534(    13)      6  -0.000842(    18)     0
 -----------------------------------------------------------------------------------------------
 Internal  Forces:  Max     0.060067130 RMS     0.033065546
 Force constants in Cartesian coordinates: 
                1             2             3             4             5 
      1  0.501758D+00
      2  0.245428D-02  0.482191D+00
      3 -0.546054D-02  0.450117D-02  0.483682D+00
      4 -0.781278D-01 -0.159397D-03 -0.698075D-03  0.500460D+00
      5 -0.159180D-03 -0.778633D-01  0.106780D-03 -0.131521D-02  0.480671D+00
      6 -0.670950D-03 -0.932642D-04 -0.238625D+00 -0.711722D-02 -0.947944D-03
      7 -0.235411D+00 -0.859716D-04  0.597676D-01  0.771648D-02 -0.141999D-05
      8  0.467867D-04 -0.665966D-01 -0.293767D-03 -0.295335D-05  0.629083D-03
      9  0.665346D-01 -0.250049D-03 -0.844523D-01  0.224434D-01 -0.413005D-05
     10 -0.101559D+00 -0.646387D-01 -0.278819D-01  0.247930D-02  0.313154D-02
     11 -0.654552D-01 -0.177492D+00 -0.491727D-01  0.314298D-02  0.611455D-02
     12 -0.316306D-01 -0.550714D-01 -0.823935D-01 -0.109001D-01 -0.188782D-01
     13 -0.990264D-01  0.624447D-01 -0.257271D-01  0.233373D-02 -0.294839D-02
     14  0.631287D-01 -0.172390D+00  0.448585D-01 -0.295825D-02  0.575178D-02
     15 -0.294435D-01  0.508202D-01 -0.782118D-01 -0.108452D-01  0.187756D-01
     16  0.770494D-02  0.000000D+00  0.000000D+00 -0.234326D+00  0.730504D-05
     17 -0.137506D-04  0.623317D-03  0.000000D+00 -0.105603D-03 -0.671249D-01
     18  0.224091D-01  0.000000D+00  0.000000D+00  0.658551D-01  0.212293D-04
     19  0.234791D-02 -0.296956D-02  0.000000D+00 -0.100902D+00  0.635871D-01
     20 -0.297038D-02  0.577781D-02  0.000000D+00  0.643601D-01 -0.175554D+00
     21 -0.108961D-01  0.188714D-01  0.000000D+00 -0.296242D-01  0.515884D-01
     22  0.231362D-02  0.295464D-02  0.000000D+00 -0.996345D-01 -0.623018D-01
     23  0.296873D-02  0.574934D-02  0.000000D+00 -0.629616D-01 -0.172624D+00
     24 -0.108421D-01 -0.187780D-01  0.000000D+00 -0.291137D-01 -0.506616D-01
                6             7             8             9            10 
      6  0.478501D+00
      7  0.000000D+00  0.236068D+00
      8  0.000000D+00  0.817890D-04  0.499637D-01
      9  0.000000D+00 -0.646223D-01  0.237884D-03  0.703325D-01
     10  0.000000D+00 -0.427530D-02 -0.226936D-01 -0.124347D-01  0.897839D-01
     11  0.000000D+00  0.142840D-02  0.787785D-02  0.415451D-02  0.725874D-01
     12  0.000000D+00  0.247804D-02  0.124488D-01  0.720738D-02  0.308359D-01
     13  0.000000D+00 -0.409869D-02  0.225702D-01 -0.119210D-01  0.135734D-01
     14  0.000000D+00 -0.142280D-02  0.811057D-02 -0.413821D-02  0.116004D-01
     15  0.000000D+00  0.237663D-02 -0.123929D-01  0.691243D-02  0.948076D-02
     16  0.596032D-01  0.000000D+00  0.000000D+00  0.000000D+00  0.000000D+00
     17  0.623382D-04  0.000000D+00  0.512540D-03  0.000000D+00  0.436412D-03
     18 -0.836183D-01  0.000000D+00  0.000000D+00  0.000000D+00  0.000000D+00
     19 -0.261541D-01  0.000000D+00 -0.431664D-03  0.000000D+00 -0.367548D-03
     20  0.461161D-01  0.000000D+00 -0.249222D-03  0.000000D+00 -0.212204D-03
     21 -0.785579D-01  0.000000D+00  0.000000D+00  0.000000D+00  0.000000D+00
     22 -0.256609D-01  0.000000D+00  0.429533D-03  0.000000D+00  0.365734D-03
     23 -0.451372D-01  0.000000D+00 -0.247991D-03  0.000000D+00 -0.211157D-03
     24 -0.777000D-01  0.000000D+00  0.000000D+00  0.000000D+00  0.000000D+00
               11            12            13            14            15 
     11  0.173598D+00
     12  0.534146D-01  0.682218D-01
     13 -0.117046D-01  0.921680D-02  0.872162D-01
     14 -0.100909D-01  0.808612D-02 -0.703491D-01  0.168626D+00
     15 -0.839644D-02  0.696438D-02  0.284313D-01 -0.488064D-01  0.643350D-01
     16  0.000000D+00  0.000000D+00  0.000000D+00  0.000000D+00  0.000000D+00
     17 -0.251963D-03  0.000000D+00 -0.428871D-03 -0.247604D-03  0.000000D+00
     18  0.000000D+00  0.000000D+00  0.000000D+00  0.000000D+00  0.000000D+00
     19  0.212204D-03  0.000000D+00  0.361198D-03  0.208534D-03  0.000000D+00
     20  0.122516D-03  0.000000D+00  0.208538D-03  0.120397D-03  0.000000D+00
     21  0.000000D+00  0.000000D+00  0.000000D+00  0.000000D+00  0.000000D+00
     22 -0.211157D-03  0.000000D+00 -0.359415D-03 -0.207504D-03  0.000000D+00
     23  0.121912D-03  0.000000D+00  0.207508D-03  0.119803D-03  0.000000D+00
     24  0.000000D+00  0.000000D+00  0.000000D+00  0.000000D+00  0.000000D+00
               16            17            18            19            20 
     16  0.234831D+00
     17  0.000000D+00  0.502478D-01
     18 -0.643858D-01  0.000000D+00  0.697084D-01
     19 -0.411529D-02  0.226515D-01 -0.119689D-01  0.888675D-01
     20 -0.142422D-02  0.814041D-02 -0.414223D-02 -0.716100D-01  0.171553D+00
     21  0.239722D-02 -0.124363D-01  0.697209D-02  0.288635D-01 -0.499986D-01
     22 -0.409484D-02 -0.225395D-01 -0.119095D-01  0.138078D-01  0.116482D-01
     23  0.141711D-02  0.810035D-02  0.412153D-02 -0.116481D-01 -0.991107D-02
     24  0.238541D-02  0.123744D-01  0.693775D-02  0.925953D-02  0.802481D-02
               21            22            23            24 
     21  0.648385D-01
     22  0.925956D-02  0.876016D-01
     23 -0.802482D-02  0.702276D-01  0.168691D+00
     24  0.674733D-02  0.283108D-01  0.490405D-01  0.640149D-01
 Force constants in internal coordinates: 
                1             2             3             4             5 
      1  0.238625D+00
      2  0.000000D+00  0.258287D+00
      3  0.000000D+00  0.000000D+00  0.237923D+00
      4  0.000000D+00  0.000000D+00  0.000000D+00  0.228617D+00
      5  0.000000D+00  0.000000D+00  0.000000D+00  0.000000D+00  0.256969D+00
      6  0.000000D+00  0.000000D+00  0.000000D+00  0.000000D+00  0.000000D+00
      7  0.000000D+00  0.000000D+00  0.000000D+00  0.000000D+00  0.000000D+00
      8  0.000000D+00  0.000000D+00  0.000000D+00  0.000000D+00  0.000000D+00
      9  0.000000D+00  0.000000D+00  0.000000D+00  0.000000D+00  0.000000D+00
     10  0.000000D+00  0.000000D+00  0.000000D+00  0.000000D+00  0.000000D+00
     11  0.000000D+00  0.000000D+00  0.000000D+00  0.000000D+00  0.000000D+00
     12  0.000000D+00  0.000000D+00  0.000000D+00  0.000000D+00  0.000000D+00
     13  0.000000D+00  0.000000D+00  0.000000D+00  0.000000D+00  0.000000D+00
     14  0.000000D+00  0.000000D+00  0.000000D+00  0.000000D+00  0.000000D+00
     15  0.000000D+00  0.000000D+00  0.000000D+00  0.000000D+00  0.000000D+00
     16  0.000000D+00  0.000000D+00  0.000000D+00  0.000000D+00  0.000000D+00
     17  0.000000D+00  0.000000D+00  0.000000D+00  0.000000D+00  0.000000D+00
     18  0.000000D+00  0.000000D+00  0.000000D+00  0.000000D+00  0.000000D+00
                6             7             8             9            10 
      6  0.232748D+00
      7  0.000000D+00  0.228707D+00
      8  0.000000D+00  0.000000D+00  0.241087D+00
      9  0.000000D+00  0.000000D+00  0.415835D-01  0.240384D+00
     10  0.000000D+00  0.000000D+00  0.400857D-01  0.415872D-01  0.241079D+00
     11  0.000000D+00  0.000000D+00  0.000000D+00  0.000000D+00  0.000000D+00
     12  0.000000D+00  0.000000D+00  0.000000D+00  0.000000D+00  0.000000D+00
     13  0.000000D+00  0.000000D+00  0.000000D+00  0.000000D+00  0.000000D+00
     14  0.000000D+00  0.000000D+00 -0.654685D-01 -0.141257D-04  0.654526D-01
     15  0.000000D+00  0.000000D+00  0.642707D-01 -0.642155D-01 -0.117815D-02
     16  0.000000D+00  0.000000D+00  0.000000D+00  0.000000D+00  0.000000D+00
     17  0.000000D+00  0.000000D+00  0.000000D+00  0.000000D+00  0.000000D+00
     18  0.000000D+00  0.000000D+00  0.000000D+00  0.000000D+00  0.000000D+00
               11            12            13            14            15 
     11  0.239050D+00
     12  0.402857D-01  0.239043D+00
     13  0.402862D-01  0.402885D-01  0.239042D+00
     14  0.000000D+00  0.000000D+00  0.000000D+00  0.221927D+00
     15  0.000000D+00  0.000000D+00  0.000000D+00 -0.107521D+00  0.223895D+00
     16  0.000000D+00  0.162667D-05 -0.137433D-05  0.690000D-02  0.690000D-02
     17 -0.642630D-01 -0.148366D-04  0.642449D-01  0.230000D-02  0.230000D-02
     18  0.642605D-01 -0.642451D-01  0.126255D-04  0.230000D-02  0.230000D-02
               16            17            18 
     16  0.207000D-01
     17  0.690216D-02  0.225814D+00
     18  0.690356D-02 -0.109455D+00  0.225815D+00
 Leave Link  716 at Thu May 27 13:52:45 2021, MaxMem=   13107200 cpu:       0.0
 (Enter /programs/64bit/g09/g09-gfortran/bin/l103.exe)

 GradGradGradGradGradGradGradGradGradGradGradGradGradGradGradGradGradGrad
 Berny optimization.
 Search for a local minimum.
 Step number   1 out of a maximum of    2
 All quantities printed in internal units (Hartrees-Bohrs-Radians)
 Second derivative matrix not updated -- first step.
 The second derivative matrix:
                          d1        a1        t1        d2        a2
           d1           0.23862
           a1          -0.00000   0.24109
           t1          -0.00000  -0.06547   0.22193
           d2          -0.00000   0.00000   0.00000   0.25829
           a2          -0.00000   0.04158  -0.00001  -0.00000   0.24038
           t2           0.00000   0.06427  -0.10752   0.00000  -0.06422
           d3           0.00000   0.00000   0.00000   0.00000  -0.00000
           d4           0.00000   0.00000   0.00000  -0.00000   0.00000
           a3          -0.00000   0.04009   0.06545   0.00000   0.04159
           d5           0.00000  -0.00000   0.00000   0.00000   0.00000
           a4          -0.00000  -0.00000   0.00000   0.00000   0.00000
           t3          -0.00000  -0.00000   0.00690  -0.00000   0.00000
           d6           0.00000   0.00000  -0.00000  -0.00000  -0.00000
           a5          -0.00000  -0.00000  -0.00000  -0.00000   0.00000
           t4          -0.00000  -0.00000   0.00230  -0.00000   0.00000
           d7           0.00000   0.00000   0.00000   0.00000  -0.00000
           a6          -0.00000  -0.00000  -0.00000   0.00000  -0.00000
           t5          -0.00000   0.00000   0.00230   0.00000  -0.00000
                          t2        d3        d4        a3        d5
           t2           0.22390
           d3          -0.00000   0.23792
           d4           0.00000   0.00000   0.22862
           a3          -0.00118  -0.00000   0.00000   0.24108
           d5          -0.00000   0.00000   0.00000  -0.00000   0.25697
           a4           0.00000  -0.00000  -0.00000   0.00000   0.00000
           t3           0.00690  -0.00000  -0.00000  -0.00000   0.00000
           d6          -0.00000   0.00000   0.00000  -0.00000   0.00000
           a5          -0.00000  -0.00000  -0.00000   0.00000   0.00000
           t4           0.00230  -0.00000  -0.00000   0.00000   0.00000
           d7           0.00000   0.00000   0.00000   0.00000  -0.00000
           a6          -0.00000  -0.00000   0.00000  -0.00000   0.00000
           t5           0.00230  -0.00000  -0.00000  -0.00000  -0.00000
                          a4        t3        d6        a5        t4
           a4           0.23905
           t3          -0.00000   0.02070
           d6           0.00000  -0.00000   0.23275
           a5           0.04029   0.00000  -0.00000   0.23904
           t4          -0.06426   0.00690  -0.00000  -0.00001   0.22581
           d7           0.00000  -0.00000  -0.00000  -0.00000  -0.00000
           a6           0.04029  -0.00000   0.00000   0.04029   0.06424
           t5           0.06426   0.00690   0.00000  -0.06425  -0.10945
                          d7        a6        t5
           d7           0.22871
           a6          -0.00000   0.23904
           t5          -0.00000   0.00001   0.22582
     Eigenvalues --- 1000.000001000.000001000.000001000.000001000.00000
     Eigenvalues --- 1000.000001000.000001000.000001000.000001000.00000
     Eigenvalues --- 1000.000001000.000001000.000001000.000001000.00000
     Eigenvalues --- 1000.000001000.000001000.00000
 Angle between quadratic step and forces=  90.00 degrees.
 Linear search not attempted -- first point.
 Variable       Old X    -DE/DX   Delta X   Delta X   Delta X     New X
                                 (Linear)    (Quad)   (Total)
    d1        3.02192  -0.03013   0.00000   0.00000   0.00000   3.02192
    a1        1.90195   0.01122   0.00000   0.00000   0.00000   1.90195
    t1        2.09440   0.00105   0.00000   0.00000   0.00000   2.09440
    d2        2.23847  -0.04659   0.00000   0.00000   0.00000   2.23847
    a2        1.91939   0.00740   0.00000   0.00000   0.00000   1.91939
    t2       -2.09439   0.00016   0.00000   0.00000   0.00000  -2.09439
    d3        2.29082  -0.05587   0.00000   0.00000   0.00000   2.29082
    d4        2.31678  -0.05981   0.00000   0.00000   0.00000   2.31678
    a3        1.90195   0.01038   0.00000   0.00000   0.00000   1.90195
    d5        2.24169  -0.04738   0.00000   0.00000   0.00000   2.24169
    a4        1.90196   0.01189   0.00000   0.00000   0.00000   1.90196
    t3        3.14159  -0.00001   0.00000   0.00000   0.00000   3.14159
    d6        2.30509  -0.05818   0.00000   0.00000   0.00000   2.30509
    a5        1.90196   0.01102   0.00000   0.00000   0.00000   1.90196
    t4        2.09440   0.00097   0.00000   0.00000   0.00000   2.09440
    d7        2.31652  -0.06007   0.00000   0.00000   0.00000   2.31652
    a6        1.90196   0.01053   0.00000   0.00000   0.00000   1.90196
    t5       -2.09440  -0.00084   0.00000   0.00000   0.00000  -2.09440
         Item               Value     Threshold  Converged?
 Maximum Force            0.000000     0.000450     YES
 RMS     Force            0.000000     0.000300     YES
 Maximum Displacement     0.000000     0.001800     YES
 RMS     Displacement     0.000000     0.001200     YES
 Predicted change in Energy=-0.000000D+00
 Optimization completed.
    -- Stationary point found.
                       ----------------------------
                       !   Optimized Parameters   !
                       ! (Angstroms and Degrees)  !
 ----------------------                            ----------------------
 !      Name          Value   Derivative information (Atomic Units)     !
 ------------------------------------------------------------------------
 !       d1          1.5991   -DE/DX =   -0.0301                        !
 !       a1        108.974    -DE/DX =    0.0112                        !
 !       t1        120.0      -DE/DX =    0.0011                        !
 !       d2          1.1845   -DE/DX =   -0.0466                        !
 !       a2        109.9732   -DE/DX =    0.0074                        !
 !       t2       -119.9995   -DE/DX =    0.0002                        !
 !       d3          1.2123   -DE/DX =   -0.0559                        !
 !       d4          1.226    -DE/DX =   -0.0598                        !
 !       a3        108.9739   -DE/DX =    0.0104                        !
 !       d5          1.1862   -DE/DX =   -0.0474                        !
 !       a4        108.9745   -DE/DX =    0.0119                        !
 !       t3        180.0      -DE/DX =    0.0                           !
 !       d6          1.2198   -DE/DX =   -0.0582                        !
 !       a5        108.9744   -DE/DX =    0.011                         !
 !       t4        120.0      -DE/DX =    0.001                         !
 !       d7          1.2258   -DE/DX =   -0.0601                        !
 !       a6        108.9744   -DE/DX =    0.0105                        !
 !       t5       -120.0      -DE/DX =   -0.0008                        !
 ------------------------------------------------------------------------
 GradGradGradGradGradGradGradGradGradGradGradGradGradGradGradGradGradGrad

 Leave Link  103 at Thu May 27 13:52:45 2021, MaxMem=   13107200 cpu:       0.0
 (Enter /programs/64bit/g09/g09-gfortran/bin/l9999.exe)
 1\1\GINC-MOLMOD\Force\RB3LYP\6-31+G(d,p)\C2H6\OSPITE\27-May-2021\1\\#p
  b3lyp/6-31+g(d,p) force nosym\\c2h6 molecule\\0,1\C\C,1,d1\H,1,d2,2,a
 1\H,1,d3,2,a2,3,t1,0\H,1,d4,2,a3,3,t2,0\H,2,d5,1,a4,3,t3,0\H,2,d6,1,a5
 ,6,t4,0\H,2,d7,1,a6,6,t5,0\\d1=1.59913013\a1=108.97396996\t1=120.00002
 184\d2=1.18454547\a2=109.97322914\t2=-119.99952095\d3=1.21225008\d4=1.
 22598558\a3=108.97389036\d5=1.18624875\a4=108.97452258\t3=179.99999826
 \d6=1.21979867\a5=108.9743934\t4=120.00001806\d7=1.22584935\a6=108.974
 36408\t5=-120.00001475\\Version=EM64L-G09RevA.02\HF=-79.7985679\RMSD=4
 .027e-09\RMSF=2.786e-02\Dipole=-0.0006472,-0.0061452,-0.0020061\Quadru
 pole=0.3650058,0.3553286,-0.7203344,-0.0048043,-0.0409721,0.0161815\PG
 =C01 [X(C2H6)]\\@


 KNOWING HOW CONTENTED, FREE, AND JOYFUL IS LIFE IN
 THE REALMS OF SCIENCE, ONE FERVENTLY WISHES THAT
 MANY WOULD ENTER HER PORTALS.
   --  DMITRI IVANOVICH MENDELEEV
 "FIRST PRINCIPLES OF CHEMISTRY", LONGMANS, GREEN,
 AND CO.  LONDON, 1891
 Job cpu time:  0 days  0 hours  0 minutes  6.9 seconds.
 File lengths (MBytes):  RWF=      5 Int=      0 D2E=      0 Chk=      1 Scr=      1
 Normal termination of Gaussian 09 at Thu May 27 13:52:45 2021.
