 Entering Gaussian System, Link 0=g09
 Input=c2h6_024.com
 Output=c2h6_024.log
 Initial command:
 /programs/64bit/g09/g09-gfortran/bin/l1.exe /data/scratch/Gau-17483.inp -scrdir=/data/scratch/
 Entering Link 1 = /programs/64bit/g09/g09-gfortran/bin/l1.exe PID=     17484.
  
 Copyright (c) 1988,1990,1992,1993,1995,1998,2003,2009, Gaussian, Inc.
                  All Rights Reserved.
  
 This is part of the Gaussian(R) 09 program.  It is based on
 the Gaussian(R) 03 system (copyright 2003, Gaussian, Inc.),
 the Gaussian(R) 98 system (copyright 1998, Gaussian, Inc.),
 the Gaussian(R) 94 system (copyright 1995, Gaussian, Inc.),
 the Gaussian 92(TM) system (copyright 1992, Gaussian, Inc.),
 the Gaussian 90(TM) system (copyright 1990, Gaussian, Inc.),
 the Gaussian 88(TM) system (copyright 1988, Gaussian, Inc.),
 the Gaussian 86(TM) system (copyright 1986, Carnegie Mellon
 University), and the Gaussian 82(TM) system (copyright 1983,
 Carnegie Mellon University). Gaussian is a federally registered
 trademark of Gaussian, Inc.
  
 This software contains proprietary and confidential information,
 including trade secrets, belonging to Gaussian, Inc.
  
 This software is provided under written license and may be
 used, copied, transmitted, or stored only in accord with that
 written license.
  
 The following legend is applicable only to US Government
 contracts under FAR:
  
                    RESTRICTED RIGHTS LEGEND
  
 Use, reproduction and disclosure by the US Government is
 subject to restrictions as set forth in subparagraphs (a)
 and (c) of the Commercial Computer Software - Restricted
 Rights clause in FAR 52.227-19.
  
 Gaussian, Inc.
 340 Quinnipiac St., Bldg. 40, Wallingford CT 06492
  
  
 ---------------------------------------------------------------
 Warning -- This program may not be used in any manner that
 competes with the business of Gaussian, Inc. or will provide
 assistance to any competitor of Gaussian, Inc.  The licensee
 of this program is prohibited from giving any competitor of
 Gaussian, Inc. access to this program.  By using this program,
 the user acknowledges that Gaussian, Inc. is engaged in the
 business of creating and licensing software in the field of
 computational chemistry and represents and warrants to the
 licensee that it is not a competitor of Gaussian, Inc. and that
 it will not use this program in any manner prohibited above.
 ---------------------------------------------------------------
  

 Cite this work as:
 Gaussian 09, Revision A.02,
 M. J. Frisch, G. W. Trucks, H. B. Schlegel, G. E. Scuseria, 
 M. A. Robb, J. R. Cheeseman, G. Scalmani, V. Barone, B. Mennucci, 
 G. A. Petersson, H. Nakatsuji, M. Caricato, X. Li, H. P. Hratchian, 
 A. F. Izmaylov, J. Bloino, G. Zheng, J. L. Sonnenberg, M. Hada, 
 M. Ehara, K. Toyota, R. Fukuda, J. Hasegawa, M. Ishida, T. Nakajima, 
 Y. Honda, O. Kitao, H. Nakai, T. Vreven, J. A. Montgomery, Jr., 
 J. E. Peralta, F. Ogliaro, M. Bearpark, J. J. Heyd, E. Brothers, 
 K. N. Kudin, V. N. Staroverov, R. Kobayashi, J. Normand, 
 K. Raghavachari, A. Rendell, J. C. Burant, S. S. Iyengar, J. Tomasi, 
 M. Cossi, N. Rega, J. M. Millam, M. Klene, J. E. Knox, J. B. Cross, 
 V. Bakken, C. Adamo, J. Jaramillo, R. Gomperts, R. E. Stratmann, 
 O. Yazyev, A. J. Austin, R. Cammi, C. Pomelli, J. W. Ochterski, 
 R. L. Martin, K. Morokuma, V. G. Zakrzewski, G. A. Voth, 
 P. Salvador, J. J. Dannenberg, S. Dapprich, A. D. Daniels, 
 O. Farkas, J. B. Foresman, J. V. Ortiz, J. Cioslowski, 
 and D. J. Fox, Gaussian, Inc., Wallingford CT, 2009.
 
 ******************************************
 Gaussian 09:  EM64L-G09RevA.02 11-Jun-2009
                27-May-2021 
 ******************************************
 %chk=c2h6_024.chk
 %mem=100MB
 --------------------------------
 #p b3lyp/6-31+g(d,p) force nosym
 --------------------------------
 1/10=7,30=1,38=1/1,3;
 2/12=2,15=1,17=6,18=5,40=1/2;
 3/5=1,6=6,7=111,11=2,16=1,25=1,30=1,71=1,74=-5/1,2,3;
 4//1;
 5/5=2,38=5/2;
 6/7=2,8=2,9=2,10=2,28=1/1;
 7/29=1,30=1/1,2,3,16;
 1/10=7,30=1/3;
 99//99;
 Leave Link    1 at Thu May 27 13:53:58 2021, MaxMem=   13107200 cpu:       0.0
 (Enter /programs/64bit/g09/g09-gfortran/bin/l101.exe)
 -------------
 c2h6 molecule
 -------------
 Symbolic Z-matrix:
 Charge =  0 Multiplicity = 1
 C1
 C2                   1    d1
 H3                   1    d2       2    a1
 H4                   1    d3       2    a2       3    t1       0
 H5                   1    d4       2    a3       3    t2       0
 H6                   2    d5       1    a4       3    t3       0
 H7                   2    d6       1    a5       6    t4       0
 H8                   2    d7       1    a6       6    t5       0
       Variables:
       Constants:
  d1                    1.54677                  
  a1                  109.0169                   
  t1                  120.00003                  
  d2                    1.09417                  
  a2                  110.01665                  
  t2                 -120.00016                  
  d3                    1.09425                  
  d4                    1.09452                  
  a3                  109.01681                  
  d5                    1.09406                  
  a4                  109.01666                  
  t3                  180.                       
  d6                    1.09421                  
  a5                  109.01661                  
  t4                  120.00002                  
  d7                    1.09405                  
  a6                  109.01655                  
  t5                 -120.00002                  
 
 NAtoms=      8 NQM=      8 NQMF=      0 NMic=      0 NMicF=      0 NTot=      8.
                    Isotopes and Nuclear Properties:
 (Nuclear quadrupole moments (NQMom) in fm**2, nuclear magnetic moments (NMagM)
  in nuclear magnetons)

  Atom         1           2           3           4           5           6           7           8
 IAtWgt=          12          12           1           1           1           1           1           1
 AtmWgt=  12.0000000  12.0000000   1.0078250   1.0078250   1.0078250   1.0078250   1.0078250   1.0078250
 NucSpn=           0           0           1           1           1           1           1           1
 AtZEff=   0.0000000   0.0000000   0.0000000   0.0000000   0.0000000   0.0000000   0.0000000   0.0000000
 NQMom=    0.0000000   0.0000000   0.0000000   0.0000000   0.0000000   0.0000000   0.0000000   0.0000000
 NMagM=    0.0000000   0.0000000   2.7928460   2.7928460   2.7928460   2.7928460   2.7928460   2.7928460
 Leave Link  101 at Thu May 27 13:53:58 2021, MaxMem=   13107200 cpu:       0.0
 (Enter /programs/64bit/g09/g09-gfortran/bin/l103.exe)

 GradGradGradGradGradGradGradGradGradGradGradGradGradGradGradGradGradGrad
 Berny optimization.
 Initialization pass.
                       ----------------------------
                       !    Initial Parameters    !
                       ! (Angstroms and Degrees)  !
 ----------------------                            ----------------------
 !      Name          Value   Derivative information (Atomic Units)     !
 ------------------------------------------------------------------------
 !       d1          1.5468   Frozen                                    !
 !       a1        109.0169   Frozen                                    !
 !       t1        120.0      Frozen                                    !
 !       d2          1.0942   Frozen                                    !
 !       a2        110.0167   Frozen                                    !
 !       t2       -120.0002   Frozen                                    !
 !       d3          1.0942   Frozen                                    !
 !       d4          1.0945   Frozen                                    !
 !       a3        109.0168   Frozen                                    !
 !       d5          1.0941   Frozen                                    !
 !       a4        109.0167   Frozen                                    !
 !       t3        180.0      Frozen                                    !
 !       d6          1.0942   Frozen                                    !
 !       a5        109.0166   Frozen                                    !
 !       t4        120.0      Frozen                                    !
 !       d7          1.0941   Frozen                                    !
 !       a6        109.0165   Frozen                                    !
 !       t5       -120.0      Frozen                                    !
 ------------------------------------------------------------------------
 Trust Radius=3.00D-01 FncErr=1.00D-07 GrdErr=1.00D-07
 Number of steps in this run=   2 maximum allowed number of steps=   2.
 GradGradGradGradGradGradGradGradGradGradGradGradGradGradGradGradGradGrad

 Leave Link  103 at Thu May 27 13:53:58 2021, MaxMem=   13107200 cpu:       0.0
 (Enter /programs/64bit/g09/g09-gfortran/bin/l202.exe)
                          Input orientation:                          
 ---------------------------------------------------------------------
 Center     Atomic      Atomic             Coordinates (Angstroms)
 Number     Number       Type             X           Y           Z
 ---------------------------------------------------------------------
      1          6           0        0.000000    0.000000    0.000000
      2          6           0        0.000000    0.000000    1.546774
      3          1           0        1.034453    0.000000   -0.356532
      4          1           0       -0.514073   -0.890400   -0.374553
      5          1           0       -0.517394    0.896147   -0.356644
      6          1           0       -1.034355    0.000000    1.903267
      7          1           0        0.517245   -0.895893    1.903312
      8          1           0        0.517173    0.895770    1.903262
 ---------------------------------------------------------------------
                    Distance matrix (angstroms):
                    1          2          3          4          5
     1  C    0.000000
     2  C    1.546774   0.000000
     3  H    1.094170   2.166256   0.000000
     4  H    1.094246   2.179124   1.786357   0.000000
     5  H    1.094519   2.166512   1.792013   1.786640   0.000000
     6  H    2.166175   1.094065   3.063765   2.500394   2.485463
     7  H    2.166279   1.094206   2.485362   2.500463   3.064195
     8  H    2.166166   1.094054   2.485286   3.072834   2.485458
                    6          7          8
     6  H    0.000000
     7  H    1.791671   0.000000
     8  H    1.791547   1.791663   0.000000
 Symmetry turned off by external request.
 Stoichiometry    C2H6
 Framework group  C1[X(C2H6)]
 Deg. of freedom    18
 Full point group                 C1      NOp   1
 Rotational constants (GHZ):     78.2560932     19.9447729     19.9340323
 Leave Link  202 at Thu May 27 13:53:58 2021, MaxMem=   13107200 cpu:       0.0
 (Enter /programs/64bit/g09/g09-gfortran/bin/l301.exe)
 Standard basis: 6-31+G(d,p) (6D, 7F)
 Ernie: Thresh=  0.10000D-02 Tol=  0.10000D-05 Strict=F.
 Integral buffers will be    131072 words long.
 Raffenetti 2 integral format.
 Two-electron integral symmetry is turned off.
    68 basis functions,   106 primitive gaussians,    68 cartesian basis functions
     9 alpha electrons        9 beta electrons
       nuclear repulsion energy        42.0781546750 Hartrees.
 IExCor=  402 DFT=T Ex+Corr=B3LYP ExCW=0 ScaHFX=  0.200000
 ScaDFX=  0.800000  0.720000  1.000000  0.810000 ScalE2=  1.000000  1.000000
 IRadAn=      0 IRanWt=     -1 IRanGd=            0 ICorTp=0
 NAtoms=    8 NActive=    8 NUniq=    8 SFac= 7.50D-01 NAtFMM=   80 NAOKFM=F Big=F
 Leave Link  301 at Thu May 27 13:53:59 2021, MaxMem=   13107200 cpu:       0.0
 (Enter /programs/64bit/g09/g09-gfortran/bin/l302.exe)
 NPDir=0 NMtPBC=     1 NCelOv=     1 NCel=       1 NClECP=     1 NCelD=      1
         NCelK=      1 NCelE2=     1 NClLst=     1 CellRange=     0.0.
 One-electron integrals computed using PRISM.
 NBasis=    68 RedAO= T  NBF=    68
 NBsUse=    68 1.00D-06 NBFU=    68
 Precomputing XC quadrature grid using
 IXCGrd= 2 IRadAn=           0 IRanWt=          -1 IRanGd=           0 AccXCQ= 1.00D-10.
 NRdTot=     510 NPtTot=       65100 NUsed=       68787 NTot=       68819
 NSgBfM=    68    68    68    68    68 NAtAll=     8     8.
 Leave Link  302 at Thu May 27 13:53:59 2021, MaxMem=   13107200 cpu:       0.1
 (Enter /programs/64bit/g09/g09-gfortran/bin/l303.exe)
 DipDrv:  MaxL=1.
 Leave Link  303 at Thu May 27 13:53:59 2021, MaxMem=   13107200 cpu:       0.0
 (Enter /programs/64bit/g09/g09-gfortran/bin/l401.exe)
 Harris functional with IExCor=  402 diagonalized for initial guess.
 ExpMin= 4.38D-02 ExpMax= 3.05D+03 ExpMxC= 4.57D+02 IAcc=2 IRadAn=         0 AccDes= 0.00D+00
 HarFok:  IExCor=  402 AccDes= 0.00D+00 IRadAn=         0 IDoV= 1
 ScaDFX=  1.000000  1.000000  1.000000  1.000000
 FoFCou: FMM=F IPFlag=           0 FMFlag=      100000 FMFlg1=           0
         NFxFlg=           0 DoJE=T BraDBF=F KetDBF=T FulRan=T
         Omega=  0.000000  0.000000  1.000000  0.000000  0.000000 ICntrl=     500 IOpCl=  0
         NMat0=    1 NMatS0=    1 NMatT0=    0 NMatD0=    1 NMtDS0=    0 NMtDT0=    0
         I1Cent=           4 NGrid=           0.
 Symmetry not used in FoFCou.
 Harris En= -79.8972692260917    
 Leave Link  401 at Thu May 27 13:53:59 2021, MaxMem=   13107200 cpu:       0.6
 (Enter /programs/64bit/g09/g09-gfortran/bin/l502.exe)
 Closed shell SCF:
 Requested convergence on RMS density matrix=1.00D-08 within 128 cycles.
 Requested convergence on MAX density matrix=1.00D-06.
 Requested convergence on             energy=1.00D-06.
 No special actions if energy rises.
 Using DIIS extrapolation, IDIIS=  1040.
 Two-electron integral symmetry not used.
        68702 words used for storage of precomputed grid.
 Keep R1 ints in memory in canonical form, NReq=3743087.
 IEnd=      101552 IEndB=      101552 NGot=    13107200 MDV=    10273922
 LenX=    10273922 LenY=    10268857
 Symmetry not used in FoFDir.
 MinBra= 0 MaxBra= 2 Meth= 1.
 IRaf=       0 NMat=   1 IRICut=       1 DoRegI=T DoRafI=F ISym2E= 0 JSym2E=0.

 Cycle   1  Pass 1  IDiag  1:
 E= -79.7100059959137    
 DIIS: error= 3.96D-02 at cycle   1 NSaved=   1.
 NSaved= 1 IEnMin= 1 EnMin= -79.7100059959137     IErMin= 1 ErrMin= 3.96D-02
 ErrMax= 3.96D-02 EMaxC= 1.00D-01 BMatC= 1.15D-01 BMatP= 1.15D-01
 IDIUse=3 WtCom= 6.04D-01 WtEn= 3.96D-01
 Coeff-Com:  0.100D+01
 Coeff-En:   0.100D+01
 Coeff:      0.100D+01
 Gap=     0.283 Goal=   None    Shift=    0.000
 GapD=    0.283 DampG=1.000 DampE=0.500 DampFc=0.5000 IDamp=-1.
 Damping current iteration by 5.00D-01
 RMSDP=9.57D-03 MaxDP=1.39D-01              OVMax= 2.02D-01

 Cycle   2  Pass 1  IDiag  1:
 E= -79.7642729636053     Delta-E=       -0.054266967692 Rises=F Damp=T
 DIIS: error= 1.15D-02 at cycle   2 NSaved=   2.
 NSaved= 2 IEnMin= 2 EnMin= -79.7642729636053     IErMin= 2 ErrMin= 1.15D-02
 ErrMax= 1.15D-02 EMaxC= 1.00D-01 BMatC= 4.49D-03 BMatP= 1.15D-01
 IDIUse=3 WtCom= 8.85D-01 WtEn= 1.15D-01
 Coeff-Com:  0.108D+00 0.892D+00
 Coeff-En:   0.185D+00 0.815D+00
 Coeff:      0.117D+00 0.883D+00
 Gap=     0.372 Goal=   None    Shift=    0.000
 RMSDP=1.27D-03 MaxDP=9.71D-03 DE=-5.43D-02 OVMax= 1.25D-01

 Cycle   3  Pass 1  IDiag  1:
 E= -79.8403186232041     Delta-E=       -0.076045659599 Rises=F Damp=F
 DIIS: error= 2.27D-03 at cycle   3 NSaved=   3.
 NSaved= 3 IEnMin= 3 EnMin= -79.8403186232041     IErMin= 3 ErrMin= 2.27D-03
 ErrMax= 2.27D-03 EMaxC= 1.00D-01 BMatC= 1.52D-04 BMatP= 4.49D-03
 IDIUse=3 WtCom= 9.77D-01 WtEn= 2.27D-02
 Coeff-Com:  0.713D-02 0.105D+00 0.887D+00
 Coeff-En:   0.000D+00 0.000D+00 0.100D+01
 Coeff:      0.697D-02 0.103D+00 0.890D+00
 Gap=     0.365 Goal=   None    Shift=    0.000
 RMSDP=1.97D-04 MaxDP=2.14D-03 DE=-7.60D-02 OVMax= 4.56D-03

 Cycle   4  Pass 1  IDiag  1:
 E= -79.8404488011694     Delta-E=       -0.000130177965 Rises=F Damp=F
 DIIS: error= 7.01D-04 at cycle   4 NSaved=   4.
 NSaved= 4 IEnMin= 4 EnMin= -79.8404488011694     IErMin= 4 ErrMin= 7.01D-04
 ErrMax= 7.01D-04 EMaxC= 1.00D-01 BMatC= 1.05D-05 BMatP= 1.52D-04
 IDIUse=3 WtCom= 9.93D-01 WtEn= 7.01D-03
 Coeff-Com: -0.505D-03-0.513D-02 0.198D+00 0.807D+00
 Coeff-En:   0.000D+00 0.000D+00 0.000D+00 0.100D+01
 Coeff:     -0.501D-03-0.509D-02 0.197D+00 0.809D+00
 Gap=     0.365 Goal=   None    Shift=    0.000
 RMSDP=4.39D-05 MaxDP=4.48D-04 DE=-1.30D-04 OVMax= 1.22D-03

 Cycle   5  Pass 1  IDiag  1:
 E= -79.8404587480170     Delta-E=       -0.000009946848 Rises=F Damp=F
 DIIS: error= 2.48D-05 at cycle   5 NSaved=   5.
 NSaved= 5 IEnMin= 5 EnMin= -79.8404587480170     IErMin= 5 ErrMin= 2.48D-05
 ErrMax= 2.48D-05 EMaxC= 1.00D-01 BMatC= 2.68D-08 BMatP= 1.05D-05
 IDIUse=1 WtCom= 1.00D+00 WtEn= 0.00D+00
 Coeff-Com:  0.347D-03-0.606D-03-0.232D-02 0.587D-02 0.997D+00
 Coeff:      0.347D-03-0.606D-03-0.232D-02 0.587D-02 0.997D+00
 Gap=     0.365 Goal=   None    Shift=    0.000
 RMSDP=2.81D-06 MaxDP=6.75D-05 DE=-9.95D-06 OVMax= 9.52D-05

 Cycle   6  Pass 1  IDiag  1:
 E= -79.8404587705726     Delta-E=       -0.000000022556 Rises=F Damp=F
 DIIS: error= 1.73D-05 at cycle   6 NSaved=   6.
 NSaved= 6 IEnMin= 6 EnMin= -79.8404587705726     IErMin= 6 ErrMin= 1.73D-05
 ErrMax= 1.73D-05 EMaxC= 1.00D-01 BMatC= 8.31D-09 BMatP= 2.68D-08
 IDIUse=1 WtCom= 1.00D+00 WtEn= 0.00D+00
 Coeff-Com:  0.195D-03-0.224D-03-0.534D-02-0.135D-01 0.526D+00 0.493D+00
 Coeff:      0.195D-03-0.224D-03-0.534D-02-0.135D-01 0.526D+00 0.493D+00
 Gap=     0.365 Goal=   None    Shift=    0.000
 RMSDP=1.07D-06 MaxDP=2.27D-05 DE=-2.26D-08 OVMax= 3.18D-05

 Cycle   7  Pass 1  IDiag  1:
 E= -79.8404587786444     Delta-E=       -0.000000008072 Rises=F Damp=F
 DIIS: error= 1.11D-06 at cycle   7 NSaved=   7.
 NSaved= 7 IEnMin= 7 EnMin= -79.8404587786444     IErMin= 7 ErrMin= 1.11D-06
 ErrMax= 1.11D-06 EMaxC= 1.00D-01 BMatC= 4.03D-11 BMatP= 8.31D-09
 IDIUse=1 WtCom= 1.00D+00 WtEn= 0.00D+00
 Coeff-Com: -0.814D-05 0.509D-05-0.230D-03-0.897D-03-0.809D-02 0.549D-01
 Coeff-Com:  0.954D+00
 Coeff:     -0.814D-05 0.509D-05-0.230D-03-0.897D-03-0.809D-02 0.549D-01
 Coeff:      0.954D+00
 Gap=     0.365 Goal=   None    Shift=    0.000
 RMSDP=9.71D-08 MaxDP=1.62D-06 DE=-8.07D-09 OVMax= 2.16D-06

 Cycle   8  Pass 1  IDiag  1:
 E= -79.8404587786876     Delta-E=       -0.000000000043 Rises=F Damp=F
 DIIS: error= 8.10D-08 at cycle   8 NSaved=   8.
 NSaved= 8 IEnMin= 8 EnMin= -79.8404587786876     IErMin= 8 ErrMin= 8.10D-08
 ErrMax= 8.10D-08 EMaxC= 1.00D-01 BMatC= 3.55D-13 BMatP= 4.03D-11
 IDIUse=1 WtCom= 1.00D+00 WtEn= 0.00D+00
 Coeff-Com: -0.301D-05 0.231D-05-0.407D-04-0.207D-03-0.444D-02 0.131D-01
 Coeff-Com:  0.262D+00 0.730D+00
 Coeff:     -0.301D-05 0.231D-05-0.407D-04-0.207D-03-0.444D-02 0.131D-01
 Coeff:      0.262D+00 0.730D+00
 Gap=     0.365 Goal=   None    Shift=    0.000
 RMSDP=1.32D-08 MaxDP=1.48D-07 DE=-4.32D-11 OVMax= 2.22D-07

 Cycle   9  Pass 1  IDiag  1:
 E= -79.8404587786879     Delta-E=       -0.000000000000 Rises=F Damp=F
 DIIS: error= 1.25D-08 at cycle   9 NSaved=   9.
 NSaved= 9 IEnMin= 9 EnMin= -79.8404587786879     IErMin= 9 ErrMin= 1.25D-08
 ErrMax= 1.25D-08 EMaxC= 1.00D-01 BMatC= 9.30D-15 BMatP= 3.55D-13
 IDIUse=1 WtCom= 1.00D+00 WtEn= 0.00D+00
 Coeff-Com: -0.158D-08 0.129D-06 0.694D-05 0.106D-04-0.317D-03-0.113D-02
 Coeff-Com: -0.131D-01 0.110D+00 0.904D+00
 Coeff:     -0.158D-08 0.129D-06 0.694D-05 0.106D-04-0.317D-03-0.113D-02
 Coeff:     -0.131D-01 0.110D+00 0.904D+00
 Gap=     0.365 Goal=   None    Shift=    0.000
 RMSDP=2.04D-09 MaxDP=2.27D-08 DE=-3.69D-13 OVMax= 4.29D-08

 SCF Done:  E(RB3LYP) =  -79.8404587787     A.U. after    9 cycles
             Convg  =    0.2044D-08             -V/T =  2.0110
 KE= 7.897212960565D+01 PE=-2.678996660996D+02 EE= 6.700892304030D+01
 Leave Link  502 at Thu May 27 13:54:04 2021, MaxMem=   13107200 cpu:       4.8
 (Enter /programs/64bit/g09/g09-gfortran/bin/l601.exe)
 Copying SCF densities to generalized density rwf, IOpCl= 0 IROHF=0.

 **********************************************************************

            Population analysis using the SCF density.

 **********************************************************************

 Alpha  occ. eigenvalues --  -10.17748 -10.17722  -0.75254  -0.61306  -0.43881
 Alpha  occ. eigenvalues --   -0.43812  -0.35625  -0.34769  -0.34734
 Alpha virt. eigenvalues --    0.01742   0.03171   0.05277   0.05291   0.07953
 Alpha virt. eigenvalues --    0.08964   0.08970   0.14226   0.18962   0.19036
 Alpha virt. eigenvalues --    0.20444   0.20570   0.24528   0.29412   0.32788
 Alpha virt. eigenvalues --    0.62118   0.64313   0.64375   0.66426   0.66531
 Alpha virt. eigenvalues --    0.69222   0.92069   0.92122   0.97112   0.97175
 Alpha virt. eigenvalues --    0.99618   1.09622   1.11242   1.32039   1.32277
 Alpha virt. eigenvalues --    1.46265   1.68740   1.68986   1.89338   2.04146
 Alpha virt. eigenvalues --    2.04304   2.08637   2.08773   2.09201   2.09244
 Alpha virt. eigenvalues --    2.29148   2.29473   2.37952   2.49151   2.49532
 Alpha virt. eigenvalues --    2.66080   2.71941   2.80511   2.80547   2.91314
 Alpha virt. eigenvalues --    2.91871   3.22091   3.28180   3.36279   3.36508
 Alpha virt. eigenvalues --    3.52043   3.52073   4.33305   4.58122
          Condensed to atoms (all electrons):
              1          2          3          4          5          6
     1  C    5.102322   0.258473   0.405006   0.404437   0.405000  -0.046506
     2  C    0.258473   5.097120  -0.046317  -0.044682  -0.046318   0.405385
     3  H    0.405006  -0.046317   0.556628  -0.028377  -0.027701   0.004779
     4  H    0.404437  -0.044682  -0.028377   0.555947  -0.028367  -0.004350
     5  H    0.405000  -0.046318  -0.027701  -0.028367   0.556678  -0.004451
     6  H   -0.046506   0.405385   0.004779  -0.004350  -0.004451   0.555819
     7  H   -0.046499   0.405378  -0.004452  -0.004350   0.004776  -0.027829
     8  H   -0.047258   0.406502  -0.004496   0.004686  -0.004495  -0.027993
              7          8
     1  C   -0.046499  -0.047258
     2  C    0.405378   0.406502
     3  H   -0.004452  -0.004496
     4  H   -0.004350   0.004686
     5  H    0.004776  -0.004495
     6  H   -0.027829  -0.027993
     7  H    0.555840  -0.027990
     8  H   -0.027990   0.555663
 Mulliken atomic charges:
              1
     1  C   -0.434975
     2  C   -0.435542
     3  H    0.144929
     4  H    0.145058
     5  H    0.144879
     6  H    0.145145
     7  H    0.145125
     8  H    0.145381
 Sum of Mulliken atomic charges =  -0.00000
 Mulliken charges with hydrogens summed into heavy atoms:
              1
     1  C   -0.000110
     2  C    0.000110
 Sum of Mulliken charges with hydrogens summed into heavy atoms =  -0.00000
 Electronic spatial extent (au):  <R**2>=            148.6305
 Charge=             -0.0000 electrons
 Dipole moment (field-independent basis, Debye):
    X=              0.0001    Y=             -0.0000    Z=             -0.0018  Tot=              0.0018
 Quadrupole moment (field-independent basis, Debye-Ang):
   XX=            -14.9418   YY=            -14.9501   ZZ=            -16.1988
   XY=             -0.0072   XZ=              0.0133   YZ=              0.0234
 Traceless Quadrupole moment (field-independent basis, Debye-Ang):
   XX=              0.4218   YY=              0.4135   ZZ=             -0.8353
   XY=             -0.0072   XZ=              0.0133   YZ=              0.0234
 Octapole moment (field-independent basis, Debye-Ang**2):
  XXX=             -0.0133  YYY=             -0.0092  ZZZ=            -37.5743  XYY=              0.0076
  XXY=             -0.0031  XXZ=            -11.5339  XZZ=             -0.0019  YZZ=             -0.0034
  YYZ=            -11.5363  XYZ=             -0.0020
 Hexadecapole moment (field-independent basis, Debye-Ang**3):
 XXXX=            -31.3260 YYYY=            -31.3257 ZZZZ=           -157.6763 XXXY=              0.0057
 XXXZ=             -1.3210 YYYX=              0.0005 YYYZ=              0.0023 ZZZX=              0.0123
 ZZZY=              0.0274 XXYY=            -10.4436 XXZZ=            -29.6166 YYZZ=            -29.5983
 XXYZ=              0.0008 YYXZ=              1.3194 ZZXY=              0.0168
 N-N= 4.207815467501D+01 E-N=-2.678996662648D+02  KE= 7.897212960565D+01
 No NMR shielding tensors so no spin-rotation constants.
 Leave Link  601 at Thu May 27 13:54:04 2021, MaxMem=   13107200 cpu:       0.0
 (Enter /programs/64bit/g09/g09-gfortran/bin/l701.exe)
 Compute integral first derivatives.
 ... and contract with generalized density number  0.
 Leave Link  701 at Thu May 27 13:54:04 2021, MaxMem=   13107200 cpu:       0.0
 (Enter /programs/64bit/g09/g09-gfortran/bin/l702.exe)
 L702 exits ... SP integral derivatives will be done elsewhere.
 Leave Link  702 at Thu May 27 13:54:04 2021, MaxMem=   13107200 cpu:       0.0
 (Enter /programs/64bit/g09/g09-gfortran/bin/l703.exe)
 Compute integral first derivatives, UseDBF=F ICtDFT=           0.
 Integral derivatives from FoFDir, PRISM(SPDF).
 Calling FoFJK, ICntrl=      2127 FMM=F ISym2X=0 I1Cent= 0 IOpClX= 0 NMat=1 NMatS=1 NMatT=0.
 FoFCou: FMM=F IPFlag=           0 FMFlag=      100000 FMFlg1=         800
         NFxFlg=           0 DoJE=F BraDBF=F KetDBF=F FulRan=T
         Omega=  0.000000  0.000000  1.000000  0.000000  0.000000 ICntrl=    2127 IOpCl=  0
         NMat0=    1 NMatS0=    1 NMatT0=    0 NMatD0=    1 NMtDS0=    0 NMtDT0=    0
         I1Cent=           0 NGrid=           0.
 Symmetry not used in FoFCou.
 Leave Link  703 at Thu May 27 13:54:06 2021, MaxMem=   13107200 cpu:       1.1
 (Enter /programs/64bit/g09/g09-gfortran/bin/l716.exe)
 Dipole        = 5.50577724D-05-6.59532257D-06-7.00562992D-04
 -------------------------------------------------------------------
 Center     Atomic                   Forces (Hartrees/Bohr)
 Number     Number              X              Y              Z
 -------------------------------------------------------------------
      1        6           0.000262045    0.000755569    0.012783876
      2        6          -0.000555184   -0.001053229   -0.014820586
      3        1          -0.001476355    0.000485952   -0.004847800
      4        1           0.000549595    0.000968225   -0.003277720
      5        1           0.001254191   -0.001217083   -0.004777539
      6        1           0.001628446   -0.000009942    0.005090681
      7        1          -0.000857002    0.001477410    0.005064923
      8        1          -0.000805736   -0.001406901    0.004784165
 -------------------------------------------------------------------
 Cartesian Forces:  Max     0.014820586 RMS     0.004706236
 -----------------------------------------------------------------------------------------------
                       Internal Coordinate Forces (Hartree/Bohr or radian)
  Cent   Atom   N1       Length/X         N2         Alpha/Y        N3         Beta/Z          J
 -----------------------------------------------------------------------------------------------
      1  C 
      2  C        1   0.000119(     1)
      3  H        1   0.000184(     2)      2   0.010471(     8)
      4  H        1   0.000076(     3)      2   0.007156(     9)      3   0.000016(    14)     0
      5  H        1  -0.000033(     4)      2   0.010475(    10)      3   0.000934(    15)     0
      6  H        2   0.000119(     5)      1   0.011048(    11)      3   0.000002(    16)     0
      7  H        2   0.000036(     6)      1   0.011052(    12)      6  -0.000007(    17)     0
      8  H        2   0.000026(     7)      1   0.010443(    13)      6  -0.000011(    18)     0
 -----------------------------------------------------------------------------------------------
 Internal  Forces:  Max     0.011052185 RMS     0.005891622
 Force constants in Cartesian coordinates: 
                1             2             3             4             5 
      1  0.654906D+00
      2 -0.870263D-03  0.653593D+00
      3  0.190821D-02  0.349717D-02  0.594321D+00
      4 -0.851637D-01 -0.162085D-03 -0.753636D-04  0.657378D+00
      5 -0.162086D-03 -0.853470D-01 -0.116745D-03  0.493085D-04  0.657310D+00
      6 -0.147922D-05  0.302257D-05 -0.279272D+00 -0.210791D-04  0.413310D-04
      7 -0.311408D+00 -0.810052D-04  0.825085D-01  0.865441D-02 -0.163662D-05
      8 -0.241213D-03 -0.784641D-01 -0.176670D-03 -0.605320D-05  0.727689D-03
      9  0.926817D-01 -0.235031D-03 -0.103959D+00  0.251102D-01 -0.474853D-05
     10 -0.135951D+00 -0.994503D-01 -0.429934D-01  0.284521D-02  0.360687D-02
     11 -0.994595D-01 -0.250800D+00 -0.744768D-01  0.360693D-02  0.701016D-02
     12 -0.481010D-01 -0.833166D-01 -0.107208D+00 -0.124796D-01 -0.216152D-01
     13 -0.136438D+00  0.100563D+00 -0.413479D-01  0.271192D-02 -0.343529D-02
     14  0.100733D+00 -0.253036D+00  0.712731D-01 -0.343094D-02  0.666728D-02
     15 -0.464890D-01  0.800545D-01 -0.103882D+00 -0.125553D-01  0.217367D-01
     16  0.865434D-02  0.000000D+00  0.000000D+00 -0.311616D+00  0.000000D+00
     17 -0.102098D-04  0.721442D-03  0.000000D+00  0.106583D-04 -0.793691D-01
     18  0.251103D-01  0.000000D+00  0.000000D+00  0.924268D-01  0.000000D+00
     19  0.270888D-02 -0.344200D-02  0.000000D+00 -0.137385D+00  0.100516D+00
     20 -0.343195D-02  0.666596D-02  0.000000D+00  0.100508D+00 -0.253438D+00
     21 -0.125535D-01  0.217434D-01  0.000000D+00 -0.461915D-01  0.800060D-01
     22  0.269155D-02  0.344247D-02  0.000000D+00 -0.137424D+00 -0.100573D+00
     23  0.344264D-02  0.666686D-02  0.000000D+00 -0.100576D+00 -0.253561D+00
     24 -0.125553D-01 -0.217464D-01  0.000000D+00 -0.462142D-01 -0.800466D-01
                6             7             8             9            10 
      6  0.589384D+00
      7  0.000000D+00  0.312888D+00
      8  0.000000D+00  0.953917D-04  0.585086D-01
      9  0.000000D+00 -0.883872D-01  0.276772D-03  0.869024D-01
     10  0.000000D+00 -0.514593D-02 -0.272036D-01 -0.149306D-01  0.121441D+00
     11  0.000000D+00  0.171559D-02  0.942052D-02  0.497765D-02  0.108657D+00
     12  0.000000D+00  0.298443D-02  0.149422D-01  0.865912D-02  0.461517D-01
     13  0.000000D+00 -0.498861D-02  0.273554D-01 -0.144741D-01  0.168102D-01
     14  0.000000D+00 -0.172834D-02  0.980732D-02 -0.501465D-02  0.143905D-01
     15  0.000000D+00  0.289430D-02 -0.150423D-01  0.839760D-02  0.117722D-01
     16  0.827480D-01  0.000000D+00  0.000000D+00  0.000000D+00  0.000000D+00
     17 -0.210497D-05  0.000000D+00  0.601936D-03  0.000000D+00  0.524489D-03
     18 -0.103380D+00  0.000000D+00  0.000000D+00  0.000000D+00  0.000000D+00
     19 -0.413517D-01  0.000000D+00 -0.521224D-03  0.000000D+00 -0.454162D-03
     20  0.716230D-01  0.000000D+00 -0.300929D-03  0.000000D+00 -0.262211D-03
     21 -0.103349D+00  0.000000D+00  0.000000D+00  0.000000D+00  0.000000D+00
     22 -0.413737D-01  0.000000D+00  0.521296D-03  0.000000D+00  0.454225D-03
     23 -0.716653D-01  0.000000D+00 -0.300971D-03  0.000000D+00 -0.262247D-03
     24 -0.103382D+00  0.000000D+00  0.000000D+00  0.000000D+00  0.000000D+00
               11            12            13            14            15 
     11  0.246906D+00
     12  0.799372D-01  0.898928D-01
     13 -0.145195D-01  0.114444D-01  0.121904D+00
     14 -0.125370D-01  0.100524D-01 -0.109964D+00  0.249098D+00
     15 -0.104380D-01  0.865628D-02  0.443777D-01 -0.763109D-01  0.868278D-01
     16  0.000000D+00  0.000000D+00  0.000000D+00  0.000000D+00  0.000000D+00
     17 -0.302814D-03  0.000000D+00 -0.521124D-03 -0.300873D-03  0.000000D+00
     18  0.000000D+00  0.000000D+00  0.000000D+00  0.000000D+00  0.000000D+00
     19  0.262211D-03  0.000000D+00  0.451248D-03  0.260530D-03  0.000000D+00
     20  0.151388D-03  0.000000D+00  0.260528D-03  0.150417D-03  0.000000D+00
     21  0.000000D+00  0.000000D+00  0.000000D+00  0.000000D+00  0.000000D+00
     22 -0.262247D-03  0.000000D+00 -0.451310D-03 -0.260566D-03  0.000000D+00
     23  0.151409D-03  0.000000D+00  0.260564D-03  0.150438D-03  0.000000D+00
     24  0.000000D+00  0.000000D+00  0.000000D+00  0.000000D+00  0.000000D+00
               16            17            18            19            20 
     16  0.312946D+00
     17  0.000000D+00  0.590239D-01
     18 -0.885672D-01  0.000000D+00  0.864961D-01
     19 -0.499193D-02  0.273655D-01 -0.144839D-01  0.122457D+00
     20 -0.172423D-02  0.981208D-02 -0.500280D-02 -0.109896D+00  0.249353D+00
     21  0.290943D-02 -0.150449D-01  0.844161D-02  0.442610D-01 -0.766624D-01
     22 -0.499262D-02 -0.273693D-01 -0.144859D-01  0.172143D-01  0.145450D-01
     23  0.172447D-02  0.981346D-02  0.500350D-02 -0.145450D-01 -0.123940D-01
     24  0.290982D-02  0.150470D-01  0.844276D-02  0.115746D-01  0.100421D-01
               21            22            23            24 
     21  0.864660D-01
     22  0.115746D-01  0.122508D+00
     23 -0.100421D-01  0.109956D+00  0.249474D+00
     24  0.844165D-02  0.442850D-01  0.767039D-01  0.864979D-01
 Force constants in internal coordinates: 
                1             2             3             4             5 
      1  0.279272D+00
      2  0.000000D+00  0.343352D+00
      3  0.000000D+00  0.000000D+00  0.343265D+00
      4  0.000000D+00  0.000000D+00  0.000000D+00  0.342956D+00
      5  0.000000D+00  0.000000D+00  0.000000D+00  0.000000D+00  0.343471D+00
      6  0.000000D+00  0.000000D+00  0.000000D+00  0.000000D+00  0.000000D+00
      7  0.000000D+00  0.000000D+00  0.000000D+00  0.000000D+00  0.000000D+00
      8  0.000000D+00  0.000000D+00  0.000000D+00  0.000000D+00  0.000000D+00
      9  0.000000D+00  0.000000D+00  0.000000D+00  0.000000D+00  0.000000D+00
     10  0.000000D+00  0.000000D+00  0.000000D+00  0.000000D+00  0.000000D+00
     11  0.000000D+00  0.000000D+00  0.000000D+00  0.000000D+00  0.000000D+00
     12  0.000000D+00  0.000000D+00  0.000000D+00  0.000000D+00  0.000000D+00
     13  0.000000D+00  0.000000D+00  0.000000D+00  0.000000D+00  0.000000D+00
     14  0.000000D+00  0.000000D+00  0.000000D+00  0.000000D+00  0.000000D+00
     15  0.000000D+00  0.000000D+00  0.000000D+00  0.000000D+00  0.000000D+00
     16  0.000000D+00  0.000000D+00  0.000000D+00  0.000000D+00  0.000000D+00
     17  0.000000D+00  0.000000D+00  0.000000D+00  0.000000D+00  0.000000D+00
     18  0.000000D+00  0.000000D+00  0.000000D+00  0.000000D+00  0.000000D+00
                6             7             8             9            10 
      6  0.343311D+00
      7  0.000000D+00  0.343483D+00
      8  0.000000D+00  0.000000D+00  0.241294D+00
      9  0.000000D+00  0.000000D+00  0.416778D-01  0.240591D+00
     10  0.000000D+00  0.000000D+00  0.401799D-01  0.416775D-01  0.241294D+00
     11  0.000000D+00  0.000000D+00  0.000000D+00  0.000000D+00  0.000000D+00
     12  0.000000D+00  0.000000D+00  0.000000D+00  0.000000D+00  0.000000D+00
     13  0.000000D+00  0.000000D+00  0.000000D+00  0.000000D+00  0.000000D+00
     14  0.000000D+00  0.000000D+00 -0.655193D-01  0.000000D+00  0.655190D-01
     15  0.000000D+00  0.000000D+00  0.643308D-01 -0.642828D-01 -0.118292D-02
     16  0.000000D+00  0.000000D+00  0.000000D+00  0.000000D+00  0.000000D+00
     17  0.000000D+00  0.000000D+00  0.000000D+00  0.000000D+00  0.000000D+00
     18  0.000000D+00  0.000000D+00  0.000000D+00  0.000000D+00  0.000000D+00
               11            12            13            14            15 
     11  0.239248D+00
     12  0.403749D-01  0.239248D+00
     13  0.403748D-01  0.403747D-01  0.239248D+00
     14  0.000000D+00  0.000000D+00  0.000000D+00  0.221618D+00
     15  0.000000D+00  0.000000D+00  0.000000D+00 -0.107369D+00  0.223583D+00
     16  0.000000D+00  0.000000D+00  0.000000D+00  0.690000D-02  0.690000D-02
     17 -0.643173D-01  0.000000D+00  0.643172D-01  0.230000D-02  0.230000D-02
     18  0.643173D-01 -0.643172D-01  0.000000D+00  0.230000D-02  0.230000D-02
               16            17            18 
     16  0.207000D-01
     17  0.690003D-02  0.225510D+00
     18  0.689999D-02 -0.109305D+00  0.225510D+00
 Leave Link  716 at Thu May 27 13:54:06 2021, MaxMem=   13107200 cpu:       0.0
 (Enter /programs/64bit/g09/g09-gfortran/bin/l103.exe)

 GradGradGradGradGradGradGradGradGradGradGradGradGradGradGradGradGradGrad
 Berny optimization.
 Search for a local minimum.
 Step number   1 out of a maximum of    2
 All quantities printed in internal units (Hartrees-Bohrs-Radians)
 Second derivative matrix not updated -- first step.
 The second derivative matrix:
                          d1        a1        t1        d2        a2
           d1           0.27927
           a1           0.00000   0.24129
           t1           0.00000  -0.06552   0.22162
           d2           0.00000   0.00000  -0.00000   0.34335
           a2           0.00000   0.04168  -0.00000  -0.00000   0.24059
           t2          -0.00000   0.06433  -0.10737  -0.00000  -0.06428
           d3          -0.00000  -0.00000   0.00000  -0.00000   0.00000
           d4          -0.00000  -0.00000   0.00000  -0.00000   0.00000
           a3           0.00000   0.04018   0.06552   0.00000   0.04168
           d5          -0.00000   0.00000   0.00000   0.00000  -0.00000
           a4           0.00000   0.00000  -0.00000   0.00000   0.00000
           t3           0.00000   0.00000   0.00690   0.00000  -0.00000
           d6          -0.00000   0.00000  -0.00000   0.00000  -0.00000
           a5          -0.00000   0.00000  -0.00000   0.00000   0.00000
           t4           0.00000   0.00000   0.00230   0.00000  -0.00000
           d7          -0.00000   0.00000   0.00000   0.00000   0.00000
           a6          -0.00000   0.00000  -0.00000   0.00000  -0.00000
           t5           0.00000   0.00000   0.00230   0.00000  -0.00000
                          t2        d3        d4        a3        d5
           t2           0.22358
           d3          -0.00000   0.34327
           d4          -0.00000   0.00000   0.34296
           a3          -0.00118  -0.00000  -0.00000   0.24129
           d5          -0.00000  -0.00000   0.00000  -0.00000   0.34347
           a4          -0.00000   0.00000  -0.00000   0.00000   0.00000
           t3           0.00690   0.00000  -0.00000   0.00000  -0.00000
           d6          -0.00000   0.00000  -0.00000   0.00000   0.00000
           a5          -0.00000  -0.00000  -0.00000   0.00000  -0.00000
           t4           0.00230   0.00000  -0.00000  -0.00000  -0.00000
           d7          -0.00000  -0.00000   0.00000  -0.00000  -0.00000
           a6           0.00000   0.00000   0.00000  -0.00000  -0.00000
           t5           0.00230   0.00000  -0.00000  -0.00000  -0.00000
                          a4        t3        d6        a5        t4
           a4           0.23925
           t3           0.00000   0.02070
           d6          -0.00000  -0.00000   0.34331
           a5           0.04037   0.00000  -0.00000   0.23925
           t4          -0.06432   0.00690  -0.00000  -0.00000   0.22551
           d7           0.00000   0.00000   0.00000   0.00000  -0.00000
           a6           0.04037  -0.00000  -0.00000   0.04037   0.06432
           t5           0.06432   0.00690  -0.00000  -0.06432  -0.10930
                          d7        a6        t5
           d7           0.34348
           a6           0.00000   0.23925
           t5           0.00000   0.00000   0.22551
     Eigenvalues --- 1000.000001000.000001000.000001000.000001000.00000
     Eigenvalues --- 1000.000001000.000001000.000001000.000001000.00000
     Eigenvalues --- 1000.000001000.000001000.000001000.000001000.00000
     Eigenvalues --- 1000.000001000.000001000.00000
 Angle between quadratic step and forces=  90.00 degrees.
 Linear search not attempted -- first point.
 Variable       Old X    -DE/DX   Delta X   Delta X   Delta X     New X
                                 (Linear)    (Quad)   (Total)
    d1        2.92298   0.00012   0.00000   0.00000   0.00000   2.92298
    a1        1.90270   0.01047   0.00000   0.00000   0.00000   1.90270
    t1        2.09440   0.00002   0.00000   0.00000   0.00000   2.09440
    d2        2.06768   0.00018   0.00000   0.00000   0.00000   2.06768
    a2        1.92015   0.00716   0.00000   0.00000   0.00000   1.92015
    t2       -2.09440   0.00093   0.00000   0.00000   0.00000  -2.09440
    d3        2.06782   0.00008   0.00000   0.00000   0.00000   2.06782
    d4        2.06834  -0.00003   0.00000   0.00000   0.00000   2.06834
    a3        1.90270   0.01048   0.00000   0.00000   0.00000   1.90270
    d5        2.06748   0.00012   0.00000   0.00000   0.00000   2.06748
    a4        1.90270   0.01105   0.00000   0.00000   0.00000   1.90270
    t3        3.14159   0.00000   0.00000   0.00000   0.00000   3.14159
    d6        2.06775   0.00004   0.00000   0.00000   0.00000   2.06775
    a5        1.90270   0.01105   0.00000   0.00000   0.00000   1.90270
    t4        2.09440  -0.00001   0.00000   0.00000   0.00000   2.09440
    d7        2.06746   0.00003   0.00000   0.00000   0.00000   2.06746
    a6        1.90270   0.01044   0.00000   0.00000   0.00000   1.90270
    t5       -2.09440  -0.00001   0.00000   0.00000   0.00000  -2.09440
         Item               Value     Threshold  Converged?
 Maximum Force            0.000000     0.000450     YES
 RMS     Force            0.000000     0.000300     YES
 Maximum Displacement     0.000000     0.001800     YES
 RMS     Displacement     0.000000     0.001200     YES
 Predicted change in Energy=-0.000000D+00
 Optimization completed.
    -- Stationary point found.
                       ----------------------------
                       !   Optimized Parameters   !
                       ! (Angstroms and Degrees)  !
 ----------------------                            ----------------------
 !      Name          Value   Derivative information (Atomic Units)     !
 ------------------------------------------------------------------------
 !       d1          1.5468   -DE/DX =    0.0001                        !
 !       a1        109.0169   -DE/DX =    0.0105                        !
 !       t1        120.0      -DE/DX =    0.0                           !
 !       d2          1.0942   -DE/DX =    0.0002                        !
 !       a2        110.0167   -DE/DX =    0.0072                        !
 !       t2       -120.0002   -DE/DX =    0.0009                        !
 !       d3          1.0942   -DE/DX =    0.0001                        !
 !       d4          1.0945   -DE/DX =    0.0                           !
 !       a3        109.0168   -DE/DX =    0.0105                        !
 !       d5          1.0941   -DE/DX =    0.0001                        !
 !       a4        109.0167   -DE/DX =    0.011                         !
 !       t3        180.0      -DE/DX =    0.0                           !
 !       d6          1.0942   -DE/DX =    0.0                           !
 !       a5        109.0166   -DE/DX =    0.0111                        !
 !       t4        120.0      -DE/DX =    0.0                           !
 !       d7          1.0941   -DE/DX =    0.0                           !
 !       a6        109.0165   -DE/DX =    0.0104                        !
 !       t5       -120.0      -DE/DX =    0.0                           !
 ------------------------------------------------------------------------
 GradGradGradGradGradGradGradGradGradGradGradGradGradGradGradGradGradGrad

 Leave Link  103 at Thu May 27 13:54:06 2021, MaxMem=   13107200 cpu:       0.0
 (Enter /programs/64bit/g09/g09-gfortran/bin/l9999.exe)
 1\1\GINC-MOLMOD\Force\RB3LYP\6-31+G(d,p)\C2H6\OSPITE\27-May-2021\1\\#p
  b3lyp/6-31+g(d,p) force nosym\\c2h6 molecule\\0,1\C\C,1,d1\H,1,d2,2,a
 1\H,1,d3,2,a2,3,t1,0\H,1,d4,2,a3,3,t2,0\H,2,d5,1,a4,3,t3,0\H,2,d6,1,a5
 ,6,t4,0\H,2,d7,1,a6,6,t5,0\\d1=1.54677356\a1=109.01689913\t1=120.00003
 053\d2=1.09416975\a2=110.0166545\t2=-120.00015704\d3=1.09424584\d4=1.0
 9451905\a3=109.01680609\d5=1.0940645\a4=109.01666245\t3=179.99999825\d
 6=1.0942058\a5=109.01660654\t4=120.00002414\d7=1.09405431\a6=109.01654
 833\t5=-120.00001899\\Version=EM64L-G09RevA.02\HF=-79.8404588\RMSD=2.0
 44e-09\RMSF=4.706e-03\Dipole=0.0000551,-0.0000066,-0.0007006\Quadrupol
 e=0.3135918,0.3074113,-0.6210031,-0.0053803,0.0098545,0.0174021\PG=C01
  [X(C2H6)]\\@


 IF IT HAPPENS, IT MUST BE POSSIBLE.

 -- THE UNNAMED LAW FROM PAUL DICKSON'S 
    "THE OFFICIAL RULES"
 Job cpu time:  0 days  0 hours  0 minutes  6.8 seconds.
 File lengths (MBytes):  RWF=      5 Int=      0 D2E=      0 Chk=      1 Scr=      1
 Normal termination of Gaussian 09 at Thu May 27 13:54:06 2021.
