 Entering Gaussian System, Link 0=g09
 Input=c2h6_011.com
 Output=c2h6_011.log
 Initial command:
 /programs/64bit/g09/g09-gfortran/bin/l1.exe /data/scratch/Gau-17151.inp -scrdir=/data/scratch/
 Entering Link 1 = /programs/64bit/g09/g09-gfortran/bin/l1.exe PID=     17152.
  
 Copyright (c) 1988,1990,1992,1993,1995,1998,2003,2009, Gaussian, Inc.
                  All Rights Reserved.
  
 This is part of the Gaussian(R) 09 program.  It is based on
 the Gaussian(R) 03 system (copyright 2003, Gaussian, Inc.),
 the Gaussian(R) 98 system (copyright 1998, Gaussian, Inc.),
 the Gaussian(R) 94 system (copyright 1995, Gaussian, Inc.),
 the Gaussian 92(TM) system (copyright 1992, Gaussian, Inc.),
 the Gaussian 90(TM) system (copyright 1990, Gaussian, Inc.),
 the Gaussian 88(TM) system (copyright 1988, Gaussian, Inc.),
 the Gaussian 86(TM) system (copyright 1986, Carnegie Mellon
 University), and the Gaussian 82(TM) system (copyright 1983,
 Carnegie Mellon University). Gaussian is a federally registered
 trademark of Gaussian, Inc.
  
 This software contains proprietary and confidential information,
 including trade secrets, belonging to Gaussian, Inc.
  
 This software is provided under written license and may be
 used, copied, transmitted, or stored only in accord with that
 written license.
  
 The following legend is applicable only to US Government
 contracts under FAR:
  
                    RESTRICTED RIGHTS LEGEND
  
 Use, reproduction and disclosure by the US Government is
 subject to restrictions as set forth in subparagraphs (a)
 and (c) of the Commercial Computer Software - Restricted
 Rights clause in FAR 52.227-19.
  
 Gaussian, Inc.
 340 Quinnipiac St., Bldg. 40, Wallingford CT 06492
  
  
 ---------------------------------------------------------------
 Warning -- This program may not be used in any manner that
 competes with the business of Gaussian, Inc. or will provide
 assistance to any competitor of Gaussian, Inc.  The licensee
 of this program is prohibited from giving any competitor of
 Gaussian, Inc. access to this program.  By using this program,
 the user acknowledges that Gaussian, Inc. is engaged in the
 business of creating and licensing software in the field of
 computational chemistry and represents and warrants to the
 licensee that it is not a competitor of Gaussian, Inc. and that
 it will not use this program in any manner prohibited above.
 ---------------------------------------------------------------
  

 Cite this work as:
 Gaussian 09, Revision A.02,
 M. J. Frisch, G. W. Trucks, H. B. Schlegel, G. E. Scuseria, 
 M. A. Robb, J. R. Cheeseman, G. Scalmani, V. Barone, B. Mennucci, 
 G. A. Petersson, H. Nakatsuji, M. Caricato, X. Li, H. P. Hratchian, 
 A. F. Izmaylov, J. Bloino, G. Zheng, J. L. Sonnenberg, M. Hada, 
 M. Ehara, K. Toyota, R. Fukuda, J. Hasegawa, M. Ishida, T. Nakajima, 
 Y. Honda, O. Kitao, H. Nakai, T. Vreven, J. A. Montgomery, Jr., 
 J. E. Peralta, F. Ogliaro, M. Bearpark, J. J. Heyd, E. Brothers, 
 K. N. Kudin, V. N. Staroverov, R. Kobayashi, J. Normand, 
 K. Raghavachari, A. Rendell, J. C. Burant, S. S. Iyengar, J. Tomasi, 
 M. Cossi, N. Rega, J. M. Millam, M. Klene, J. E. Knox, J. B. Cross, 
 V. Bakken, C. Adamo, J. Jaramillo, R. Gomperts, R. E. Stratmann, 
 O. Yazyev, A. J. Austin, R. Cammi, C. Pomelli, J. W. Ochterski, 
 R. L. Martin, K. Morokuma, V. G. Zakrzewski, G. A. Voth, 
 P. Salvador, J. J. Dannenberg, S. Dapprich, A. D. Daniels, 
 O. Farkas, J. B. Foresman, J. V. Ortiz, J. Cioslowski, 
 and D. J. Fox, Gaussian, Inc., Wallingford CT, 2009.
 
 ******************************************
 Gaussian 09:  EM64L-G09RevA.02 11-Jun-2009
                27-May-2021 
 ******************************************
 %chk=c2h6_011.chk
 %mem=100MB
 --------------------------------
 #p b3lyp/6-31+g(d,p) force nosym
 --------------------------------
 1/10=7,30=1,38=1/1,3;
 2/12=2,15=1,17=6,18=5,40=1/2;
 3/5=1,6=6,7=111,11=2,16=1,25=1,30=1,71=1,74=-5/1,2,3;
 4//1;
 5/5=2,38=5/2;
 6/7=2,8=2,9=2,10=2,28=1/1;
 7/29=1,30=1/1,2,3,16;
 1/10=7,30=1/3;
 99//99;
 Leave Link    1 at Thu May 27 13:52:06 2021, MaxMem=   13107200 cpu:       0.0
 (Enter /programs/64bit/g09/g09-gfortran/bin/l101.exe)
 -------------
 c2h6 molecule
 -------------
 Symbolic Z-matrix:
 Charge =  0 Multiplicity = 1
 C1
 C2                   1    d1
 H3                   1    d2       2    a1
 H4                   1    d3       2    a2       3    t1       0
 H5                   1    d4       2    a3       3    t2       0
 H6                   2    d5       1    a4       3    t3       0
 H7                   2    d6       1    a5       6    t4       0
 H8                   2    d7       1    a6       6    t5       0
       Variables:
       Constants:
  d1                    1.79884                  
  a1                  108.96755                  
  t1                  120.00002                  
  d2                    1.21055                  
  a2                  109.96669                  
  t2                 -119.99941                  
  d3                    1.24475                  
  d4                    1.26158                  
  a3                  108.96748                  
  d5                    1.21273                  
  a4                  108.96824                  
  t3                  180.                       
  d6                    1.25401                  
  a5                  108.9681                   
  t4                  120.00002                  
  d7                    1.26146                  
  a6                  108.96806                  
  t5                 -120.00001                  
 
 NAtoms=      8 NQM=      8 NQMF=      0 NMic=      0 NMicF=      0 NTot=      8.
                    Isotopes and Nuclear Properties:
 (Nuclear quadrupole moments (NQMom) in fm**2, nuclear magnetic moments (NMagM)
  in nuclear magnetons)

  Atom         1           2           3           4           5           6           7           8
 IAtWgt=          12          12           1           1           1           1           1           1
 AtmWgt=  12.0000000  12.0000000   1.0078250   1.0078250   1.0078250   1.0078250   1.0078250   1.0078250
 NucSpn=           0           0           1           1           1           1           1           1
 AtZEff=   0.0000000   0.0000000   0.0000000   0.0000000   0.0000000   0.0000000   0.0000000   0.0000000
 NQMom=    0.0000000   0.0000000   0.0000000   0.0000000   0.0000000   0.0000000   0.0000000   0.0000000
 NMagM=    0.0000000   0.0000000   2.7928460   2.7928460   2.7928460   2.7928460   2.7928460   2.7928460
 Leave Link  101 at Thu May 27 13:52:06 2021, MaxMem=   13107200 cpu:       0.0
 (Enter /programs/64bit/g09/g09-gfortran/bin/l103.exe)

 GradGradGradGradGradGradGradGradGradGradGradGradGradGradGradGradGradGrad
 Berny optimization.
 Initialization pass.
                       ----------------------------
                       !    Initial Parameters    !
                       ! (Angstroms and Degrees)  !
 ----------------------                            ----------------------
 !      Name          Value   Derivative information (Atomic Units)     !
 ------------------------------------------------------------------------
 !       d1          1.7988   Frozen                                    !
 !       a1        108.9676   Frozen                                    !
 !       t1        120.0      Frozen                                    !
 !       d2          1.2105   Frozen                                    !
 !       a2        109.9667   Frozen                                    !
 !       t2       -119.9994   Frozen                                    !
 !       d3          1.2447   Frozen                                    !
 !       d4          1.2616   Frozen                                    !
 !       a3        108.9675   Frozen                                    !
 !       d5          1.2127   Frozen                                    !
 !       a4        108.9682   Frozen                                    !
 !       t3        180.0      Frozen                                    !
 !       d6          1.254    Frozen                                    !
 !       a5        108.9681   Frozen                                    !
 !       t4        120.0      Frozen                                    !
 !       d7          1.2615   Frozen                                    !
 !       a6        108.9681   Frozen                                    !
 !       t5       -120.0      Frozen                                    !
 ------------------------------------------------------------------------
 Trust Radius=3.00D-01 FncErr=1.00D-07 GrdErr=1.00D-07
 Number of steps in this run=   2 maximum allowed number of steps=   2.
 GradGradGradGradGradGradGradGradGradGradGradGradGradGradGradGradGradGrad

 Leave Link  103 at Thu May 27 13:52:06 2021, MaxMem=   13107200 cpu:       0.0
 (Enter /programs/64bit/g09/g09-gfortran/bin/l202.exe)
                          Input orientation:                          
 ---------------------------------------------------------------------
 Center     Atomic      Atomic             Coordinates (Angstroms)
 Number     Number       Type             X           Y           Z
 ---------------------------------------------------------------------
      1          6           0        0.000000    0.000000    0.000000
      2          6           0        0.000000    0.000000    1.798840
      3          1           0        1.144818    0.000000   -0.393467
      4          1           0       -0.584965   -1.013188   -0.425049
      5          1           0       -0.596530    1.033245   -0.410053
      6          1           0       -1.146877    0.000000    2.193030
      7          1           0        0.592959   -1.027035    2.206446
      8          1           0        0.596484    1.033139    2.208868
 ---------------------------------------------------------------------
                    Distance matrix (angstroms):
                    1          2          3          4          5
     1  C    0.000000
     2  C    1.798840   0.000000
     3  H    1.210547   2.473221   0.000000
     4  H    1.244750   2.512851   2.004918   0.000000
     5  H    1.261581   2.510509   2.024886   2.046521   0.000000
     6  H    2.474815   1.212729   3.455696   2.862977   2.854211
     7  H    2.504956   1.254011   2.849368   2.883134   3.536341
     8  H    2.510432   1.261464   2.853103   3.538474   2.877852
                    6          7          8
     6  H    0.000000
     7  H    2.020398   0.000000
     8  H    2.026557   2.060178   0.000000
 Symmetry turned off by external request.
 Stoichiometry    C2H6
 Framework group  C1[X(C2H6)]
 Deg. of freedom    18
 Full point group                 C1      NOp   1
 Rotational constants (GHZ):     60.8060601     14.9549625     14.8712791
 Leave Link  202 at Thu May 27 13:52:06 2021, MaxMem=   13107200 cpu:       0.0
 (Enter /programs/64bit/g09/g09-gfortran/bin/l301.exe)
 Standard basis: 6-31+G(d,p) (6D, 7F)
 Ernie: Thresh=  0.10000D-02 Tol=  0.10000D-05 Strict=F.
 Integral buffers will be    131072 words long.
 Raffenetti 2 integral format.
 Two-electron integral symmetry is turned off.
    68 basis functions,   106 primitive gaussians,    68 cartesian basis functions
     9 alpha electrons        9 beta electrons
       nuclear repulsion energy        36.6998530265 Hartrees.
 IExCor=  402 DFT=T Ex+Corr=B3LYP ExCW=0 ScaHFX=  0.200000
 ScaDFX=  0.800000  0.720000  1.000000  0.810000 ScalE2=  1.000000  1.000000
 IRadAn=      0 IRanWt=     -1 IRanGd=            0 ICorTp=0
 NAtoms=    8 NActive=    8 NUniq=    8 SFac= 7.50D-01 NAtFMM=   80 NAOKFM=F Big=F
 Leave Link  301 at Thu May 27 13:52:06 2021, MaxMem=   13107200 cpu:       0.0
 (Enter /programs/64bit/g09/g09-gfortran/bin/l302.exe)
 NPDir=0 NMtPBC=     1 NCelOv=     1 NCel=       1 NClECP=     1 NCelD=      1
         NCelK=      1 NCelE2=     1 NClLst=     1 CellRange=     0.0.
 One-electron integrals computed using PRISM.
 NBasis=    68 RedAO= T  NBF=    68
 NBsUse=    68 1.00D-06 NBFU=    68
 Precomputing XC quadrature grid using
 IXCGrd= 2 IRadAn=           0 IRanWt=          -1 IRanGd=           0 AccXCQ= 1.00D-10.
 NRdTot=     510 NPtTot=       65100 NUsed=       68787 NTot=       68819
 NSgBfM=    68    68    68    68    68 NAtAll=     8     8.
 Leave Link  302 at Thu May 27 13:52:06 2021, MaxMem=   13107200 cpu:       0.1
 (Enter /programs/64bit/g09/g09-gfortran/bin/l303.exe)
 DipDrv:  MaxL=1.
 Leave Link  303 at Thu May 27 13:52:06 2021, MaxMem=   13107200 cpu:       0.0
 (Enter /programs/64bit/g09/g09-gfortran/bin/l401.exe)
 Harris functional with IExCor=  402 diagonalized for initial guess.
 ExpMin= 4.38D-02 ExpMax= 3.05D+03 ExpMxC= 4.57D+02 IAcc=2 IRadAn=         0 AccDes= 0.00D+00
 HarFok:  IExCor=  402 AccDes= 0.00D+00 IRadAn=         0 IDoV= 1
 ScaDFX=  1.000000  1.000000  1.000000  1.000000
 FoFCou: FMM=F IPFlag=           0 FMFlag=      100000 FMFlg1=           0
         NFxFlg=           0 DoJE=T BraDBF=F KetDBF=T FulRan=T
         Omega=  0.000000  0.000000  1.000000  0.000000  0.000000 ICntrl=     500 IOpCl=  0
         NMat0=    1 NMatS0=    1 NMatT0=    0 NMatD0=    1 NMtDS0=    0 NMtDT0=    0
         I1Cent=           4 NGrid=           0.
 Symmetry not used in FoFCou.
 Harris En= -79.7559078343852    
 Leave Link  401 at Thu May 27 13:52:08 2021, MaxMem=   13107200 cpu:       1.2
 (Enter /programs/64bit/g09/g09-gfortran/bin/l502.exe)
 Closed shell SCF:
 Requested convergence on RMS density matrix=1.00D-08 within 128 cycles.
 Requested convergence on MAX density matrix=1.00D-06.
 Requested convergence on             energy=1.00D-06.
 No special actions if energy rises.
 Using DIIS extrapolation, IDIIS=  1040.
 Two-electron integral symmetry not used.
        68702 words used for storage of precomputed grid.
 Keep R1 ints in memory in canonical form, NReq=3743087.
 IEnd=      101552 IEndB=      101552 NGot=    13107200 MDV=    10273922
 LenX=    10273922 LenY=    10268857
 Symmetry not used in FoFDir.
 MinBra= 0 MaxBra= 2 Meth= 1.
 IRaf=       0 NMat=   1 IRICut=       1 DoRegI=T DoRafI=F ISym2E= 0 JSym2E=0.

 Cycle   1  Pass 1  IDiag  1:
 E= -79.6926117688810    
 DIIS: error= 2.90D-02 at cycle   1 NSaved=   1.
 NSaved= 1 IEnMin= 1 EnMin= -79.6926117688810     IErMin= 1 ErrMin= 2.90D-02
 ErrMax= 2.90D-02 EMaxC= 1.00D-01 BMatC= 5.10D-02 BMatP= 5.10D-02
 IDIUse=3 WtCom= 7.10D-01 WtEn= 2.90D-01
 Coeff-Com:  0.100D+01
 Coeff-En:   0.100D+01
 Coeff:      0.100D+01
 Gap=     0.327 Goal=   None    Shift=    0.000
 GapD=    0.327 DampG=1.000 DampE=0.500 DampFc=0.5000 IDamp=-1.
 Damping current iteration by 5.00D-01
 RMSDP=6.81D-03 MaxDP=9.82D-02              OVMax= 1.52D-01

 Cycle   2  Pass 1  IDiag  1:
 E= -79.7152098494396     Delta-E=       -0.022598080559 Rises=F Damp=T
 DIIS: error= 1.14D-02 at cycle   2 NSaved=   2.
 NSaved= 2 IEnMin= 2 EnMin= -79.7152098494396     IErMin= 2 ErrMin= 1.14D-02
 ErrMax= 1.14D-02 EMaxC= 1.00D-01 BMatC= 4.51D-03 BMatP= 5.10D-02
 IDIUse=3 WtCom= 8.86D-01 WtEn= 1.14D-01
 Coeff-Com:  0.168D+00 0.832D+00
 Coeff-En:   0.269D+00 0.731D+00
 Coeff:      0.180D+00 0.820D+00
 Gap=     0.339 Goal=   None    Shift=    0.000
 RMSDP=8.52D-04 MaxDP=8.00D-03 DE=-2.26D-02 OVMax= 9.10D-02

 Cycle   3  Pass 1  IDiag  1:
 E= -79.7550423296004     Delta-E=       -0.039832480161 Rises=F Damp=F
 DIIS: error= 1.23D-03 at cycle   3 NSaved=   3.
 NSaved= 3 IEnMin= 3 EnMin= -79.7550423296004     IErMin= 3 ErrMin= 1.23D-03
 ErrMax= 1.23D-03 EMaxC= 1.00D-01 BMatC= 7.05D-05 BMatP= 4.51D-03
 IDIUse=3 WtCom= 9.88D-01 WtEn= 1.23D-02
 Coeff-Com:  0.152D-01 0.619D-01 0.923D+00
 Coeff-En:   0.000D+00 0.000D+00 0.100D+01
 Coeff:      0.150D-01 0.612D-01 0.924D+00
 Gap=     0.331 Goal=   None    Shift=    0.000
 RMSDP=1.44D-04 MaxDP=1.74D-03 DE=-3.98D-02 OVMax= 3.39D-03

 Cycle   4  Pass 1  IDiag  1:
 E= -79.7551083929662     Delta-E=       -0.000066063366 Rises=F Damp=F
 DIIS: error= 5.47D-04 at cycle   4 NSaved=   4.
 NSaved= 4 IEnMin= 4 EnMin= -79.7551083929662     IErMin= 4 ErrMin= 5.47D-04
 ErrMax= 5.47D-04 EMaxC= 1.00D-01 BMatC= 7.62D-06 BMatP= 7.05D-05
 IDIUse=3 WtCom= 9.95D-01 WtEn= 5.47D-03
 Coeff-Com:  0.272D-02-0.309D-02 0.236D+00 0.764D+00
 Coeff-En:   0.000D+00 0.000D+00 0.000D+00 0.100D+01
 Coeff:      0.270D-02-0.308D-02 0.235D+00 0.765D+00
 Gap=     0.332 Goal=   None    Shift=    0.000
 RMSDP=3.74D-05 MaxDP=4.21D-04 DE=-6.61D-05 OVMax= 1.08D-03

 Cycle   5  Pass 1  IDiag  1:
 E= -79.7551162759518     Delta-E=       -0.000007882986 Rises=F Damp=F
 DIIS: error= 4.60D-05 at cycle   5 NSaved=   5.
 NSaved= 5 IEnMin= 5 EnMin= -79.7551162759518     IErMin= 5 ErrMin= 4.60D-05
 ErrMax= 4.60D-05 EMaxC= 1.00D-01 BMatC= 8.29D-08 BMatP= 7.62D-06
 IDIUse=1 WtCom= 1.00D+00 WtEn= 0.00D+00
 Coeff-Com:  0.787D-03-0.160D-02 0.514D-01 0.186D+00 0.763D+00
 Coeff:      0.787D-03-0.160D-02 0.514D-01 0.186D+00 0.763D+00
 Gap=     0.332 Goal=   None    Shift=    0.000
 RMSDP=5.77D-06 MaxDP=1.30D-04 DE=-7.88D-06 OVMax= 2.16D-04

 Cycle   6  Pass 1  IDiag  1:
 E= -79.7551162886440     Delta-E=       -0.000000012692 Rises=F Damp=F
 DIIS: error= 4.61D-05 at cycle   6 NSaved=   6.
 NSaved= 6 IEnMin= 6 EnMin= -79.7551162886440     IErMin= 5 ErrMin= 4.60D-05
 ErrMax= 4.61D-05 EMaxC= 1.00D-01 BMatC= 7.11D-08 BMatP= 8.29D-08
 IDIUse=1 WtCom= 1.00D+00 WtEn= 0.00D+00
 Coeff-Com:  0.116D-03-0.646D-03-0.521D-02-0.287D-02 0.502D+00 0.507D+00
 Coeff:      0.116D-03-0.646D-03-0.521D-02-0.287D-02 0.502D+00 0.507D+00
 Gap=     0.332 Goal=   None    Shift=    0.000
 RMSDP=2.88D-06 MaxDP=6.45D-05 DE=-1.27D-08 OVMax= 1.09D-04

 Cycle   7  Pass 1  IDiag  1:
 E= -79.7551163651871     Delta-E=       -0.000000076543 Rises=F Damp=F
 DIIS: error= 8.24D-07 at cycle   7 NSaved=   7.
 NSaved= 7 IEnMin= 7 EnMin= -79.7551163651871     IErMin= 7 ErrMin= 8.24D-07
 ErrMax= 8.24D-07 EMaxC= 1.00D-01 BMatC= 3.55D-11 BMatP= 7.11D-08
 IDIUse=1 WtCom= 1.00D+00 WtEn= 0.00D+00
 Coeff-Com:  0.129D-04-0.346D-04-0.101D-02-0.254D-02 0.247D-01 0.356D-01
 Coeff-Com:  0.943D+00
 Coeff:      0.129D-04-0.346D-04-0.101D-02-0.254D-02 0.247D-01 0.356D-01
 Coeff:      0.943D+00
 Gap=     0.332 Goal=   None    Shift=    0.000
 RMSDP=1.15D-07 MaxDP=1.35D-06 DE=-7.65D-08 OVMax= 3.14D-06

 Cycle   8  Pass 1  IDiag  1:
 E= -79.7551163652335     Delta-E=       -0.000000000046 Rises=F Damp=F
 DIIS: error= 1.38D-07 at cycle   8 NSaved=   8.
 NSaved= 8 IEnMin= 8 EnMin= -79.7551163652335     IErMin= 8 ErrMin= 1.38D-07
 ErrMax= 1.38D-07 EMaxC= 1.00D-01 BMatC= 1.28D-12 BMatP= 3.55D-11
 IDIUse=1 WtCom= 1.00D+00 WtEn= 0.00D+00
 Coeff-Com:  0.164D-05-0.146D-05-0.202D-03-0.597D-03 0.858D-03 0.359D-02
 Coeff-Com:  0.238D+00 0.758D+00
 Coeff:      0.164D-05-0.146D-05-0.202D-03-0.597D-03 0.858D-03 0.359D-02
 Coeff:      0.238D+00 0.758D+00
 Gap=     0.332 Goal=   None    Shift=    0.000
 RMSDP=2.64D-08 MaxDP=3.71D-07 DE=-4.64D-11 OVMax= 5.70D-07

 Cycle   9  Pass 1  IDiag  1:
 E= -79.7551163652350     Delta-E=       -0.000000000001 Rises=F Damp=F
 DIIS: error= 2.59D-08 at cycle   9 NSaved=   9.
 NSaved= 9 IEnMin= 9 EnMin= -79.7551163652350     IErMin= 9 ErrMin= 2.59D-08
 ErrMax= 2.59D-08 EMaxC= 1.00D-01 BMatC= 4.20D-14 BMatP= 1.28D-12
 IDIUse=1 WtCom= 1.00D+00 WtEn= 0.00D+00
 Coeff-Com: -0.358D-06 0.982D-06-0.532D-05-0.256D-04-0.617D-03-0.467D-03
 Coeff-Com:  0.127D-01 0.157D+00 0.831D+00
 Coeff:     -0.358D-06 0.982D-06-0.532D-05-0.256D-04-0.617D-03-0.467D-03
 Coeff:      0.127D-01 0.157D+00 0.831D+00
 Gap=     0.332 Goal=   None    Shift=    0.000
 RMSDP=4.39D-09 MaxDP=6.49D-08 DE=-1.48D-12 OVMax= 9.45D-08

 SCF Done:  E(RB3LYP) =  -79.7551163652     A.U. after    9 cycles
             Convg  =    0.4386D-08             -V/T =  2.0256
 KE= 7.776424315566D+01 PE=-2.561223541972D+02 EE= 6.190314164979D+01
 Leave Link  502 at Thu May 27 13:52:21 2021, MaxMem=   13107200 cpu:      11.4
 (Enter /programs/64bit/g09/g09-gfortran/bin/l601.exe)
 Copying SCF densities to generalized density rwf, IOpCl= 0 IROHF=0.

 **********************************************************************

            Population analysis using the SCF density.

 **********************************************************************

 Alpha  occ. eigenvalues --  -10.23986 -10.23859  -0.68995  -0.59276  -0.40156
 Alpha  occ. eigenvalues --   -0.39588  -0.34646  -0.34067  -0.32550
 Alpha virt. eigenvalues --    0.00653   0.01151   0.05223   0.05296   0.07560
 Alpha virt. eigenvalues --    0.08335   0.08351   0.11271   0.14077   0.14765
 Alpha virt. eigenvalues --    0.14989   0.15178   0.15744   0.24594   0.25914
 Alpha virt. eigenvalues --    0.63539   0.64123   0.64567   0.66004   0.66193
 Alpha virt. eigenvalues --    0.70410   0.90130   0.90426   0.93786   0.94708
 Alpha virt. eigenvalues --    0.95021   0.97999   1.01779   1.34733   1.38102
 Alpha virt. eigenvalues --    1.38263   1.62422   1.62971   1.63560   1.84503
 Alpha virt. eigenvalues --    1.86769   1.89207   1.91767   2.01315   2.01420
 Alpha virt. eigenvalues --    2.18322   2.19628   2.31312   2.32255   2.33045
 Alpha virt. eigenvalues --    2.44362   2.49019   2.52769   2.55107   2.58816
 Alpha virt. eigenvalues --    2.60136   2.84244   2.96033   3.13644   3.17760
 Alpha virt. eigenvalues --    3.19900   3.24467   4.24406   4.41821
          Condensed to atoms (all electrons):
              1          2          3          4          5          6
     1  C    5.137891   0.258543   0.370931   0.367825   0.367606  -0.030732
     2  C    0.258543   5.133855  -0.030721  -0.028733  -0.030021   0.370578
     3  H    0.370931  -0.030721   0.564222  -0.023608  -0.022490   0.001689
     4  H    0.367825  -0.028733  -0.023608   0.571927  -0.022153  -0.001186
     5  H    0.367606  -0.030021  -0.022490  -0.022153   0.575445  -0.001213
     6  H   -0.030732   0.370578   0.001689  -0.001186  -0.001213   0.563953
     7  H   -0.029991   0.367582  -0.001210  -0.001141   0.001497  -0.022902
     8  H   -0.030407   0.367991  -0.001233   0.001477  -0.001193  -0.022725
              7          8
     1  C   -0.029991  -0.030407
     2  C    0.367582   0.367991
     3  H   -0.001210  -0.001233
     4  H   -0.001141   0.001477
     5  H    0.001497  -0.001193
     6  H   -0.022902  -0.022725
     7  H    0.573487  -0.021638
     8  H   -0.021638   0.574376
 Mulliken atomic charges:
              1
     1  C   -0.411666
     2  C   -0.409074
     3  H    0.142421
     4  H    0.135592
     5  H    0.132522
     6  H    0.142539
     7  H    0.134316
     8  H    0.133351
 Sum of Mulliken atomic charges =  -0.00000
 Mulliken charges with hydrogens summed into heavy atoms:
              1
     1  C   -0.001132
     2  C    0.001132
 Sum of Mulliken charges with hydrogens summed into heavy atoms =  -0.00000
 Electronic spatial extent (au):  <R**2>=            188.2226
 Charge=             -0.0000 electrons
 Dipole moment (field-independent basis, Debye):
    X=             -0.0015    Y=             -0.0183    Z=             -0.0027  Tot=              0.0186
 Quadrupole moment (field-independent basis, Debye-Ang):
   XX=            -15.6627   YY=            -15.6737   ZZ=            -16.6213
   XY=             -0.0078   XZ=             -0.0767   YZ=              0.0187
 Traceless Quadrupole moment (field-independent basis, Debye-Ang):
   XX=              0.3232   YY=              0.3122   ZZ=             -0.6354
   XY=             -0.0078   XZ=             -0.0767   YZ=              0.0187
 Octapole moment (field-independent basis, Debye-Ang**2):
  XXX=             -0.0381  YYY=             -0.1214  ZZZ=            -44.8988  XYY=              0.0171
  XXY=             -0.0404  XXZ=            -14.0695  XZZ=             -0.1748  YZZ=             -0.0720
  YYZ=            -14.0738  XYZ=              0.0020
 Hexadecapole moment (field-independent basis, Debye-Ang**3):
 XXXX=            -38.3577 YYYY=            -39.8102 ZZZZ=           -217.3659 XXXY=              0.0478
 XXXZ=             -3.2887 YYYX=              0.0272 YYYZ=             -0.0416 ZZZX=             -1.1563
 ZZZY=             -0.0517 XXYY=            -12.9491 XXZZ=            -39.1622 YYZZ=            -39.3121
 XXYZ=             -0.0140 YYXZ=              2.3517 ZZXY=              0.0453
 N-N= 3.669985302655D+01 E-N=-2.561223535276D+02  KE= 7.776424315566D+01
 No NMR shielding tensors so no spin-rotation constants.
 Leave Link  601 at Thu May 27 13:52:22 2021, MaxMem=   13107200 cpu:       0.1
 (Enter /programs/64bit/g09/g09-gfortran/bin/l701.exe)
 Compute integral first derivatives.
 ... and contract with generalized density number  0.
 Leave Link  701 at Thu May 27 13:52:22 2021, MaxMem=   13107200 cpu:       0.1
 (Enter /programs/64bit/g09/g09-gfortran/bin/l702.exe)
 L702 exits ... SP integral derivatives will be done elsewhere.
 Leave Link  702 at Thu May 27 13:52:22 2021, MaxMem=   13107200 cpu:       0.0
 (Enter /programs/64bit/g09/g09-gfortran/bin/l703.exe)
 Compute integral first derivatives, UseDBF=F ICtDFT=           0.
 Integral derivatives from FoFDir, PRISM(SPDF).
 Calling FoFJK, ICntrl=      2127 FMM=F ISym2X=0 I1Cent= 0 IOpClX= 0 NMat=1 NMatS=1 NMatT=0.
 FoFCou: FMM=F IPFlag=           0 FMFlag=      100000 FMFlg1=         800
         NFxFlg=           0 DoJE=F BraDBF=F KetDBF=F FulRan=T
         Omega=  0.000000  0.000000  1.000000  0.000000  0.000000 ICntrl=    2127 IOpCl=  0
         NMat0=    1 NMatS0=    1 NMatT0=    0 NMatD0=    1 NMtDS0=    0 NMtDT0=    0
         I1Cent=           0 NGrid=           0.
 Symmetry not used in FoFCou.
 Leave Link  703 at Thu May 27 13:52:27 2021, MaxMem=   13107200 cpu:       4.1
 (Enter /programs/64bit/g09/g09-gfortran/bin/l716.exe)
 Dipole        =-5.89420674D-04-7.21906560D-03-1.05140669D-03
 -------------------------------------------------------------------
 Center     Atomic                   Forces (Hartrees/Bohr)
 Number     Number              X              Y              Z
 -------------------------------------------------------------------
      1        6          -0.008866764    0.003626425    0.011339647
      2        6           0.009289322    0.000674233   -0.012971169
      3        1          -0.054566319    0.000585841    0.017850475
      4        1           0.030851419    0.054581623    0.023242011
      5        1           0.033586317   -0.058179309    0.022384984
      6        1           0.055470963    0.000085295   -0.017838089
      7        1          -0.032438126    0.057228753   -0.021618718
      8        1          -0.033326813   -0.058602860   -0.022389142
 -------------------------------------------------------------------
 Cartesian Forces:  Max     0.058602860 RMS     0.033224705
 -----------------------------------------------------------------------------------------------
                       Internal Coordinate Forces (Hartree/Bohr or radian)
  Cent   Atom   N1       Length/X         N2         Alpha/Y        N3         Beta/Z          J
 -----------------------------------------------------------------------------------------------
      1  C 
      2  C        1  -0.074817(     1)
      3  H        1  -0.057406(     2)      2   0.001955(     8)
      4  H        1  -0.066863(     3)      2  -0.001026(     9)      3   0.001266(    14)     0
      5  H        1  -0.070806(     4)      2   0.001586(    10)      3  -0.000005(    15)     0
      6  H        2  -0.058257(     5)      1   0.002661(    11)      3  -0.000006(    16)     0
      7  H        2  -0.069236(     6)      1   0.002220(    12)      6   0.001170(    17)     0
      8  H        2  -0.071032(     7)      1   0.001762(    13)      6  -0.000991(    18)     0
 -----------------------------------------------------------------------------------------------
 Internal  Forces:  Max     0.074817118 RMS     0.041923587
 Force constants in Cartesian coordinates: 
                1             2             3             4             5 
      1  0.455792D+00
      2  0.269638D-02  0.434648D+00
      3 -0.627291D-02  0.444355D-02  0.369766D+00
      4 -0.636693D-01 -0.141582D-03 -0.717299D-03  0.454045D+00
      5 -0.141291D-03 -0.633663D-01  0.127370D-03 -0.139970D-02  0.432631D+00
      6 -0.697943D-03 -0.965343D-04 -0.139888D+00 -0.779828D-02 -0.102545D-02
      7 -0.217457D+00 -0.856778D-04  0.547257D-01  0.670950D-02 -0.117758D-05
      8  0.904708D-04 -0.636439D-01 -0.307509D-03 -0.199648D-05  0.544479D-03
      9  0.630054D-01 -0.249285D-03 -0.798836D-01  0.195217D-01 -0.342624D-05
     10 -0.941091D-01 -0.574783D-01 -0.249228D-01  0.214772D-02  0.270561D-02
     11 -0.584097D-01 -0.161956D+00 -0.441712D-01  0.271867D-02  0.529392D-02
     12 -0.294454D-01 -0.513267D-01 -0.770832D-01 -0.943623D-02 -0.163426D-01
     13 -0.912837D-01  0.550246D-01 -0.228127D-01  0.201634D-02 -0.254163D-02
     14  0.557802D-01 -0.156184D+00  0.399078D-01 -0.255375D-02  0.496917D-02
     15 -0.272872D-01  0.471325D-01 -0.729113D-01 -0.936819D-02  0.162187D-01
     16  0.669710D-02  0.000000D+00  0.000000D+00 -0.216187D+00  0.832148D-05
     17 -0.134875D-04  0.539539D-03  0.000000D+00 -0.121957D-03 -0.640984D-01
     18  0.194849D-01  0.000000D+00  0.000000D+00  0.622693D-01  0.241956D-04
     19  0.203224D-02 -0.256270D-02  0.000000D+00 -0.932224D-01  0.562479D-01
     20 -0.256582D-02  0.499630D-02  0.000000D+00  0.571292D-01 -0.159573D+00
     21 -0.942141D-02  0.163171D-01  0.000000D+00 -0.275106D-01  0.479659D-01
     22  0.199814D-02  0.254728D-02  0.000000D+00 -0.918396D-01 -0.548780D-01
     23  0.256332D-02  0.496684D-02  0.000000D+00 -0.556289D-01 -0.156401D+00
     24 -0.936551D-02 -0.162205D-01  0.000000D+00 -0.269605D-01 -0.469646D-01
                6             7             8             9            10 
      6  0.364684D+00
      7  0.000000D+00  0.218716D+00
      8  0.000000D+00  0.784445D-04  0.478536D-01
      9  0.000000D+00 -0.593422D-01  0.228239D-03  0.664518D-01
     10  0.000000D+00 -0.407266D-02 -0.216317D-01 -0.118497D-01  0.831846D-01
     11  0.000000D+00  0.136174D-02  0.751163D-02  0.396208D-02  0.654082D-01
     12  0.000000D+00  0.235893D-02  0.118647D-01  0.686345D-02  0.277980D-01
     13  0.000000D+00 -0.389589D-02  0.214672D-01 -0.113353D-01  0.128516D-01
     14  0.000000D+00 -0.135333D-02  0.771663D-02 -0.393761D-02  0.109813D-01
     15  0.000000D+00  0.225749D-02 -0.117854D-01  0.656831D-02  0.897451D-02
     16  0.545027D-01  0.000000D+00  0.000000D+00  0.000000D+00  0.000000D+00
     17  0.710180D-04  0.000000D+00  0.490543D-03  0.000000D+00  0.415704D-03
     18 -0.790170D-01  0.000000D+00  0.000000D+00  0.000000D+00  0.000000D+00
     19 -0.232656D-01  0.000000D+00 -0.410837D-03  0.000000D+00 -0.348159D-03
     20  0.412257D-01  0.000000D+00 -0.237197D-03  0.000000D+00 -0.201010D-03
     21 -0.733634D-01  0.000000D+00  0.000000D+00  0.000000D+00  0.000000D+00
     22 -0.227408D-01  0.000000D+00  0.408410D-03  0.000000D+00  0.346101D-03
     23 -0.401747D-01  0.000000D+00 -0.235796D-03  0.000000D+00 -0.199822D-03
     24 -0.724150D-01  0.000000D+00  0.000000D+00  0.000000D+00  0.000000D+00
               11            12            13            14            15 
     11  0.158709D+00
     12  0.481537D-01  0.636333D-01
     13 -0.110800D-01  0.872470D-02  0.803096D-01
     14 -0.954978D-02  0.765100D-02 -0.628555D-01  0.153057D+00
     15 -0.794458D-02  0.658648D-02  0.254233D-01 -0.436212D-01  0.597565D-01
     16  0.000000D+00  0.000000D+00  0.000000D+00  0.000000D+00  0.000000D+00
     17 -0.240007D-03  0.000000D+00 -0.407640D-03 -0.235345D-03  0.000000D+00
     18  0.000000D+00  0.000000D+00  0.000000D+00  0.000000D+00  0.000000D+00
     19  0.201010D-03  0.000000D+00  0.341405D-03  0.197105D-03  0.000000D+00
     20  0.116053D-03  0.000000D+00  0.197110D-03  0.113799D-03  0.000000D+00
     21  0.000000D+00  0.000000D+00  0.000000D+00  0.000000D+00  0.000000D+00
     22 -0.199822D-03  0.000000D+00 -0.339387D-03 -0.195941D-03  0.000000D+00
     23  0.115367D-03  0.000000D+00  0.195945D-03  0.113126D-03  0.000000D+00
     24  0.000000D+00  0.000000D+00  0.000000D+00  0.000000D+00  0.000000D+00
               16            17            18            19            20 
     16  0.217295D+00
     17  0.000000D+00  0.480902D-01
     18 -0.590462D-01  0.000000D+00  0.657980D-01
     19 -0.391410D-02  0.215573D-01 -0.113879D-01  0.820538D-01
     20 -0.135554D-02  0.774956D-02 -0.394387D-02 -0.642169D-01  0.156202D+00
     21  0.227847D-02 -0.118338D-01  0.662909D-02  0.258994D-01 -0.448655D-01
     22 -0.389081D-02 -0.214298D-01 -0.113201D-01  0.130573D-01  0.110129D-01
     23  0.134743D-02  0.770390D-02  0.392027D-02 -0.110129D-01 -0.936809D-02
     24  0.226503D-02  0.117633D-01  0.659000D-02  0.875408D-02  0.758366D-02
               21            22            23            24 
     21  0.603608D-01
     22  0.875412D-02  0.806683D-01
     23 -0.758368D-02  0.627349D-01  0.153106D+00
     24  0.637348D-02  0.253068D-01  0.438381D-01  0.594515D-01
 Force constants in internal coordinates: 
                1             2             3             4             5 
      1  0.139888D+00
      2  0.000000D+00  0.239112D+00
      3  0.000000D+00  0.000000D+00  0.216673D+00
      4  0.000000D+00  0.000000D+00  0.000000D+00  0.206657D+00
      5  0.000000D+00  0.000000D+00  0.000000D+00  0.000000D+00  0.237590D+00
      6  0.000000D+00  0.000000D+00  0.000000D+00  0.000000D+00  0.000000D+00
      7  0.000000D+00  0.000000D+00  0.000000D+00  0.000000D+00  0.000000D+00
      8  0.000000D+00  0.000000D+00  0.000000D+00  0.000000D+00  0.000000D+00
      9  0.000000D+00  0.000000D+00  0.000000D+00  0.000000D+00  0.000000D+00
     10  0.000000D+00  0.000000D+00  0.000000D+00  0.000000D+00  0.000000D+00
     11  0.000000D+00  0.000000D+00  0.000000D+00  0.000000D+00  0.000000D+00
     12  0.000000D+00  0.000000D+00  0.000000D+00  0.000000D+00  0.000000D+00
     13  0.000000D+00  0.000000D+00  0.000000D+00  0.000000D+00  0.000000D+00
     14  0.000000D+00  0.000000D+00  0.000000D+00  0.000000D+00  0.000000D+00
     15  0.000000D+00  0.000000D+00  0.000000D+00  0.000000D+00  0.000000D+00
     16  0.000000D+00  0.000000D+00  0.000000D+00  0.000000D+00  0.000000D+00
     17  0.000000D+00  0.000000D+00  0.000000D+00  0.000000D+00  0.000000D+00
     18  0.000000D+00  0.000000D+00  0.000000D+00  0.000000D+00  0.000000D+00
                6             7             8             9            10 
      6  0.211084D+00
      7  0.000000D+00  0.206724D+00
      8  0.000000D+00  0.000000D+00  0.241018D+00
      9  0.000000D+00  0.000000D+00  0.415500D-01  0.240313D+00
     10  0.000000D+00  0.000000D+00  0.400534D-01  0.415543D-01  0.241009D+00
     11  0.000000D+00  0.000000D+00  0.000000D+00  0.000000D+00  0.000000D+00
     12  0.000000D+00  0.000000D+00  0.000000D+00  0.000000D+00  0.000000D+00
     13  0.000000D+00  0.000000D+00  0.000000D+00  0.000000D+00  0.000000D+00
     14  0.000000D+00  0.000000D+00 -0.654753D-01 -0.171875D-04  0.654561D-01
     15  0.000000D+00  0.000000D+00  0.642752D-01 -0.642190D-01 -0.117762D-02
     16  0.000000D+00  0.000000D+00  0.000000D+00  0.000000D+00  0.000000D+00
     17  0.000000D+00  0.000000D+00  0.000000D+00  0.000000D+00  0.000000D+00
     18  0.000000D+00  0.000000D+00  0.000000D+00  0.000000D+00  0.000000D+00
               11            12            13            14            15 
     11  0.238984D+00
     12  0.402542D-01  0.238976D+00
     13  0.402546D-01  0.402573D-01  0.238975D+00
     14  0.000000D+00  0.000000D+00  0.000000D+00  0.222008D+00
     15  0.000000D+00  0.000000D+00  0.000000D+00 -0.107562D+00  0.223976D+00
     16  0.000000D+00  0.183253D-05 -0.154646D-05  0.690000D-02  0.690000D-02
     17 -0.642686D-01 -0.180111D-04  0.642469D-01  0.230000D-02  0.230000D-02
     18  0.642657D-01 -0.642472D-01  0.153336D-04  0.230000D-02  0.230000D-02
               16            17            18 
     16  0.207000D-01
     17  0.690256D-02  0.225892D+00
     18  0.690421D-02 -0.109494D+00  0.225894D+00
 Leave Link  716 at Thu May 27 13:52:27 2021, MaxMem=   13107200 cpu:       0.0
 (Enter /programs/64bit/g09/g09-gfortran/bin/l103.exe)

 GradGradGradGradGradGradGradGradGradGradGradGradGradGradGradGradGradGrad
 Berny optimization.
 Search for a local minimum.
 Step number   1 out of a maximum of    2
 All quantities printed in internal units (Hartrees-Bohrs-Radians)
 Second derivative matrix not updated -- first step.
 The second derivative matrix:
                          d1        a1        t1        d2        a2
           d1           0.13989
           a1           0.00000   0.24102
           t1           0.00000  -0.06548   0.22201
           d2           0.00000  -0.00000  -0.00000   0.23911
           a2          -0.00000   0.04155  -0.00002   0.00000   0.24031
           t2           0.00000   0.06428  -0.10756   0.00000  -0.06422
           d3           0.00000   0.00000  -0.00000  -0.00000  -0.00000
           d4           0.00000   0.00000   0.00000   0.00000   0.00000
           a3          -0.00000   0.04005   0.06546  -0.00000   0.04155
           d5          -0.00000   0.00000  -0.00000   0.00000  -0.00000
           a4          -0.00000   0.00000  -0.00000   0.00000   0.00000
           t3           0.00000   0.00000   0.00690   0.00000   0.00000
           d6           0.00000   0.00000   0.00000   0.00000   0.00000
           a5          -0.00000   0.00000  -0.00000   0.00000  -0.00000
           t4          -0.00000   0.00000   0.00230   0.00000   0.00000
           d7           0.00000   0.00000   0.00000   0.00000   0.00000
           a6           0.00000   0.00000   0.00000   0.00000  -0.00000
           t5           0.00000   0.00000   0.00230   0.00000   0.00000
                          t2        d3        d4        a3        d5
           t2           0.22398
           d3          -0.00000   0.21667
           d4          -0.00000   0.00000   0.20666
           a3          -0.00118   0.00000   0.00000   0.24101
           d5          -0.00000   0.00000  -0.00000   0.00000   0.23759
           a4           0.00000  -0.00000  -0.00000  -0.00000   0.00000
           t3           0.00690  -0.00000  -0.00000   0.00000   0.00000
           d6           0.00000   0.00000   0.00000  -0.00000  -0.00000
           a5          -0.00000   0.00000   0.00000  -0.00000   0.00000
           t4           0.00230  -0.00000  -0.00000   0.00000   0.00000
           d7           0.00000  -0.00000  -0.00000   0.00000   0.00000
           a6          -0.00000   0.00000   0.00000   0.00000  -0.00000
           t5           0.00230   0.00000  -0.00000   0.00000  -0.00000
                          a4        t3        d6        a5        t4
           a4           0.23898
           t3          -0.00000   0.02070
           d6           0.00000   0.00000   0.21108
           a5           0.04025   0.00000  -0.00000   0.23898
           t4          -0.06427   0.00690   0.00000  -0.00002   0.22589
           d7          -0.00000  -0.00000  -0.00000   0.00000   0.00000
           a6           0.04025  -0.00000   0.00000   0.04026   0.06425
           t5           0.06427   0.00690   0.00000  -0.06425  -0.10949
                          d7        a6        t5
           d7           0.20672
           a6           0.00000   0.23898
           t5          -0.00000   0.00002   0.22589
     Eigenvalues --- 1000.000001000.000001000.000001000.000001000.00000
     Eigenvalues --- 1000.000001000.000001000.000001000.000001000.00000
     Eigenvalues --- 1000.000001000.000001000.000001000.000001000.00000
     Eigenvalues --- 1000.000001000.000001000.00000
 Angle between quadratic step and forces=  90.00 degrees.
 Linear search not attempted -- first point.
 Variable       Old X    -DE/DX   Delta X   Delta X   Delta X     New X
                                 (Linear)    (Quad)   (Total)
    d1        3.39932  -0.07482   0.00000   0.00000   0.00000   3.39932
    a1        1.90184   0.00195   0.00000   0.00000   0.00000   1.90184
    t1        2.09440   0.00127   0.00000   0.00000   0.00000   2.09440
    d2        2.28760  -0.05741   0.00000   0.00000   0.00000   2.28760
    a2        1.91928  -0.00103   0.00000   0.00000   0.00000   1.91928
    t2       -2.09438  -0.00001   0.00000   0.00000   0.00000  -2.09438
    d3        2.35224  -0.06686   0.00000   0.00000   0.00000   2.35224
    d4        2.38404  -0.07081   0.00000   0.00000   0.00000   2.38404
    a3        1.90184   0.00159   0.00000   0.00000   0.00000   1.90184
    d5        2.29173  -0.05826   0.00000   0.00000   0.00000   2.29173
    a4        1.90185   0.00266   0.00000   0.00000   0.00000   1.90185
    t3        3.14159  -0.00001   0.00000   0.00000   0.00000   3.14159
    d6        2.36974  -0.06924   0.00000   0.00000   0.00000   2.36974
    a5        1.90185   0.00222   0.00000   0.00000   0.00000   1.90185
    t4        2.09440   0.00117   0.00000   0.00000   0.00000   2.09440
    d7        2.38382  -0.07103   0.00000   0.00000   0.00000   2.38382
    a6        1.90185   0.00176   0.00000   0.00000   0.00000   1.90185
    t5       -2.09440  -0.00099   0.00000   0.00000   0.00000  -2.09440
         Item               Value     Threshold  Converged?
 Maximum Force            0.000000     0.000450     YES
 RMS     Force            0.000000     0.000300     YES
 Maximum Displacement     0.000000     0.001800     YES
 RMS     Displacement     0.000000     0.001200     YES
 Predicted change in Energy=-0.000000D+00
 Optimization completed.
    -- Stationary point found.
                       ----------------------------
                       !   Optimized Parameters   !
                       ! (Angstroms and Degrees)  !
 ----------------------                            ----------------------
 !      Name          Value   Derivative information (Atomic Units)     !
 ------------------------------------------------------------------------
 !       d1          1.7988   -DE/DX =   -0.0748                        !
 !       a1        108.9676   -DE/DX =    0.002                         !
 !       t1        120.0      -DE/DX =    0.0013                        !
 !       d2          1.2105   -DE/DX =   -0.0574                        !
 !       a2        109.9667   -DE/DX =   -0.001                         !
 !       t2       -119.9994   -DE/DX =    0.0                           !
 !       d3          1.2447   -DE/DX =   -0.0669                        !
 !       d4          1.2616   -DE/DX =   -0.0708                        !
 !       a3        108.9675   -DE/DX =    0.0016                        !
 !       d5          1.2127   -DE/DX =   -0.0583                        !
 !       a4        108.9682   -DE/DX =    0.0027                        !
 !       t3        180.0      -DE/DX =    0.0                           !
 !       d6          1.254    -DE/DX =   -0.0692                        !
 !       a5        108.9681   -DE/DX =    0.0022                        !
 !       t4        120.0      -DE/DX =    0.0012                        !
 !       d7          1.2615   -DE/DX =   -0.071                         !
 !       a6        108.9681   -DE/DX =    0.0018                        !
 !       t5       -120.0      -DE/DX =   -0.001                         !
 ------------------------------------------------------------------------
 GradGradGradGradGradGradGradGradGradGradGradGradGradGradGradGradGradGrad

 Leave Link  103 at Thu May 27 13:52:27 2021, MaxMem=   13107200 cpu:       0.0
 (Enter /programs/64bit/g09/g09-gfortran/bin/l9999.exe)
 1\1\GINC-MOLMOD\Force\RB3LYP\6-31+G(d,p)\C2H6\OSPITE\27-May-2021\1\\#p
  b3lyp/6-31+g(d,p) force nosym\\c2h6 molecule\\0,1\C\C,1,d1\H,1,d2,2,a
 1\H,1,d3,2,a2,3,t1,0\H,1,d4,2,a3,3,t2,0\H,2,d5,1,a4,3,t3,0\H,2,d6,1,a5
 ,6,t4,0\H,2,d7,1,a6,6,t5,0\\d1=1.79884018\a1=108.96755458\t1=120.00002
 095\d2=1.21054714\a2=109.96668613\t2=-119.99940919\d3=1.24474953\d4=1.
 26158117\a3=108.96747763\d5=1.2127292\a4=108.96823695\t3=179.99999826\
 d6=1.2540107\a5=108.96809806\t4=120.00001703\d7=1.26146445\a6=108.9680
 6197\t5=-120.00001434\\Version=EM64L-G09RevA.02\HF=-79.7551164\RMSD=4.
 386e-09\RMSF=3.322e-02\Dipole=-0.0005894,-0.0072191,-0.0010514\Quadrup
 ole=0.2402784,0.2320999,-0.4723783,-0.0058277,-0.0570099,0.0138812\PG=
 C01 [X(C2H6)]\\@


 WOE UNTO THEM THAT CALL EVIL GOOD, AND GOOD EVIL      
 Job cpu time:  0 days  0 hours  0 minutes 17.3 seconds.
 File lengths (MBytes):  RWF=      5 Int=      0 D2E=      0 Chk=      1 Scr=      1
 Normal termination of Gaussian 09 at Thu May 27 13:52:27 2021.
