 Entering Gaussian System, Link 0=g09
 Input=c2h6_028.com
 Output=c2h6_028.log
 Initial command:
 /programs/64bit/g09/g09-gfortran/bin/l1.exe /data/scratch/Gau-17578.inp -scrdir=/data/scratch/
 Entering Link 1 = /programs/64bit/g09/g09-gfortran/bin/l1.exe PID=     17579.
  
 Copyright (c) 1988,1990,1992,1993,1995,1998,2003,2009, Gaussian, Inc.
                  All Rights Reserved.
  
 This is part of the Gaussian(R) 09 program.  It is based on
 the Gaussian(R) 03 system (copyright 2003, Gaussian, Inc.),
 the Gaussian(R) 98 system (copyright 1998, Gaussian, Inc.),
 the Gaussian(R) 94 system (copyright 1995, Gaussian, Inc.),
 the Gaussian 92(TM) system (copyright 1992, Gaussian, Inc.),
 the Gaussian 90(TM) system (copyright 1990, Gaussian, Inc.),
 the Gaussian 88(TM) system (copyright 1988, Gaussian, Inc.),
 the Gaussian 86(TM) system (copyright 1986, Carnegie Mellon
 University), and the Gaussian 82(TM) system (copyright 1983,
 Carnegie Mellon University). Gaussian is a federally registered
 trademark of Gaussian, Inc.
  
 This software contains proprietary and confidential information,
 including trade secrets, belonging to Gaussian, Inc.
  
 This software is provided under written license and may be
 used, copied, transmitted, or stored only in accord with that
 written license.
  
 The following legend is applicable only to US Government
 contracts under FAR:
  
                    RESTRICTED RIGHTS LEGEND
  
 Use, reproduction and disclosure by the US Government is
 subject to restrictions as set forth in subparagraphs (a)
 and (c) of the Commercial Computer Software - Restricted
 Rights clause in FAR 52.227-19.
  
 Gaussian, Inc.
 340 Quinnipiac St., Bldg. 40, Wallingford CT 06492
  
  
 ---------------------------------------------------------------
 Warning -- This program may not be used in any manner that
 competes with the business of Gaussian, Inc. or will provide
 assistance to any competitor of Gaussian, Inc.  The licensee
 of this program is prohibited from giving any competitor of
 Gaussian, Inc. access to this program.  By using this program,
 the user acknowledges that Gaussian, Inc. is engaged in the
 business of creating and licensing software in the field of
 computational chemistry and represents and warrants to the
 licensee that it is not a competitor of Gaussian, Inc. and that
 it will not use this program in any manner prohibited above.
 ---------------------------------------------------------------
  

 Cite this work as:
 Gaussian 09, Revision A.02,
 M. J. Frisch, G. W. Trucks, H. B. Schlegel, G. E. Scuseria, 
 M. A. Robb, J. R. Cheeseman, G. Scalmani, V. Barone, B. Mennucci, 
 G. A. Petersson, H. Nakatsuji, M. Caricato, X. Li, H. P. Hratchian, 
 A. F. Izmaylov, J. Bloino, G. Zheng, J. L. Sonnenberg, M. Hada, 
 M. Ehara, K. Toyota, R. Fukuda, J. Hasegawa, M. Ishida, T. Nakajima, 
 Y. Honda, O. Kitao, H. Nakai, T. Vreven, J. A. Montgomery, Jr., 
 J. E. Peralta, F. Ogliaro, M. Bearpark, J. J. Heyd, E. Brothers, 
 K. N. Kudin, V. N. Staroverov, R. Kobayashi, J. Normand, 
 K. Raghavachari, A. Rendell, J. C. Burant, S. S. Iyengar, J. Tomasi, 
 M. Cossi, N. Rega, J. M. Millam, M. Klene, J. E. Knox, J. B. Cross, 
 V. Bakken, C. Adamo, J. Jaramillo, R. Gomperts, R. E. Stratmann, 
 O. Yazyev, A. J. Austin, R. Cammi, C. Pomelli, J. W. Ochterski, 
 R. L. Martin, K. Morokuma, V. G. Zakrzewski, G. A. Voth, 
 P. Salvador, J. J. Dannenberg, S. Dapprich, A. D. Daniels, 
 O. Farkas, J. B. Foresman, J. V. Ortiz, J. Cioslowski, 
 and D. J. Fox, Gaussian, Inc., Wallingford CT, 2009.
 
 ******************************************
 Gaussian 09:  EM64L-G09RevA.02 11-Jun-2009
                27-May-2021 
 ******************************************
 %chk=c2h6_028.chk
 %mem=100MB
 --------------------------------
 #p b3lyp/6-31+g(d,p) force nosym
 --------------------------------
 1/10=7,30=1,38=1/1,3;
 2/12=2,15=1,17=6,18=5,40=1/2;
 3/5=1,6=6,7=111,11=2,16=1,25=1,30=1,71=1,74=-5/1,2,3;
 4//1;
 5/5=2,38=5/2;
 6/7=2,8=2,9=2,10=2,28=1/1;
 7/29=1,30=1/1,2,3,16;
 1/10=7,30=1/3;
 99//99;
 Leave Link    1 at Thu May 27 13:54:28 2021, MaxMem=   13107200 cpu:       0.0
 (Enter /programs/64bit/g09/g09-gfortran/bin/l101.exe)
 -------------
 c2h6 molecule
 -------------
 Symbolic Z-matrix:
 Charge =  0 Multiplicity = 1
 C1
 C2                   1    d1
 H3                   1    d2       2    a1
 H4                   1    d3       2    a2       3    t1       0
 H5                   1    d4       2    a3       3    t2       0
 H6                   2    d5       1    a4       3    t3       0
 H7                   2    d6       1    a5       6    t4       0
 H8                   2    d7       1    a6       6    t5       0
       Variables:
       Constants:
  d1                    1.54432                  
  a1                  109.04424                  
  t1                  120.00003                  
  d2                    1.09106                  
  a2                  110.03581                  
  t2                 -119.99791                  
  d3                    1.09343                  
  d4                    1.09432                  
  a3                  109.04415                  
  d5                    1.09407                  
  a4                  109.04527                  
  t3                  180.                       
  d6                    1.09429                  
  a5                  109.04526                  
  t4                  120.00002                  
  d7                    1.09408                  
  a6                  109.04367                  
  t5                 -120.00002                  
 
 NAtoms=      8 NQM=      8 NQMF=      0 NMic=      0 NMicF=      0 NTot=      8.
                    Isotopes and Nuclear Properties:
 (Nuclear quadrupole moments (NQMom) in fm**2, nuclear magnetic moments (NMagM)
  in nuclear magnetons)

  Atom         1           2           3           4           5           6           7           8
 IAtWgt=          12          12           1           1           1           1           1           1
 AtmWgt=  12.0000000  12.0000000   1.0078250   1.0078250   1.0078250   1.0078250   1.0078250   1.0078250
 NucSpn=           0           0           1           1           1           1           1           1
 AtZEff=   0.0000000   0.0000000   0.0000000   0.0000000   0.0000000   0.0000000   0.0000000   0.0000000
 NQMom=    0.0000000   0.0000000   0.0000000   0.0000000   0.0000000   0.0000000   0.0000000   0.0000000
 NMagM=    0.0000000   0.0000000   2.7928460   2.7928460   2.7928460   2.7928460   2.7928460   2.7928460
 Leave Link  101 at Thu May 27 13:54:28 2021, MaxMem=   13107200 cpu:       0.0
 (Enter /programs/64bit/g09/g09-gfortran/bin/l103.exe)

 GradGradGradGradGradGradGradGradGradGradGradGradGradGradGradGradGradGrad
 Berny optimization.
 Initialization pass.
                       ----------------------------
                       !    Initial Parameters    !
                       ! (Angstroms and Degrees)  !
 ----------------------                            ----------------------
 !      Name          Value   Derivative information (Atomic Units)     !
 ------------------------------------------------------------------------
 !       d1          1.5443   Frozen                                    !
 !       a1        109.0442   Frozen                                    !
 !       t1        120.0      Frozen                                    !
 !       d2          1.0911   Frozen                                    !
 !       a2        110.0358   Frozen                                    !
 !       t2       -119.9979   Frozen                                    !
 !       d3          1.0934   Frozen                                    !
 !       d4          1.0943   Frozen                                    !
 !       a3        109.0442   Frozen                                    !
 !       d5          1.0941   Frozen                                    !
 !       a4        109.0453   Frozen                                    !
 !       t3        180.0      Frozen                                    !
 !       d6          1.0943   Frozen                                    !
 !       a5        109.0453   Frozen                                    !
 !       t4        120.0      Frozen                                    !
 !       d7          1.0941   Frozen                                    !
 !       a6        109.0437   Frozen                                    !
 !       t5       -120.0      Frozen                                    !
 ------------------------------------------------------------------------
 Trust Radius=3.00D-01 FncErr=1.00D-07 GrdErr=1.00D-07
 Number of steps in this run=   2 maximum allowed number of steps=   2.
 GradGradGradGradGradGradGradGradGradGradGradGradGradGradGradGradGradGrad

 Leave Link  103 at Thu May 27 13:54:28 2021, MaxMem=   13107200 cpu:       0.0
 (Enter /programs/64bit/g09/g09-gfortran/bin/l202.exe)
                          Input orientation:                          
 ---------------------------------------------------------------------
 Center     Atomic      Atomic             Coordinates (Angstroms)
 Number     Number       Type             X           Y           Z
 ---------------------------------------------------------------------
      1          6           0        0.000000    0.000000    0.000000
      2          6           0        0.000000    0.000000    1.544317
      3          1           0        1.031343    0.000000   -0.356011
      4          1           0       -0.513627   -0.889628   -0.374617
      5          1           0       -0.517179    0.895856   -0.357072
      6          1           0       -1.034183    0.000000    1.901329
      7          1           0        0.517193   -0.895804    1.901399
      8          1           0        0.517101    0.895644    1.901302
 ---------------------------------------------------------------------
                    Distance matrix (angstroms):
                    1          2          3          4          5
     1  C    0.000000
     2  C    1.544317   0.000000
     3  H    1.091060   2.162155   0.000000
     4  H    1.093430   2.176593   1.782896   0.000000
     5  H    1.094318   2.164558   1.788988   1.785573   0.000000
     6  H    2.164390   1.094071   3.059735   2.498468   2.483994
     7  H    2.164548   1.094286   2.482481   2.498575   3.062786
     8  H    2.164376   1.094079   2.482355   3.070734   2.483947
                    6          7          8
     6  H    0.000000
     7  H    1.791433   0.000000
     8  H    1.791273   1.791448   0.000000
 Symmetry turned off by external request.
 Stoichiometry    C2H6
 Framework group  C1[X(C2H6)]
 Deg. of freedom    18
 Full point group                 C1      NOp   1
 Rotational constants (GHZ):     78.3768644     19.9950058     19.9845495
 Leave Link  202 at Thu May 27 13:54:28 2021, MaxMem=   13107200 cpu:       0.0
 (Enter /programs/64bit/g09/g09-gfortran/bin/l301.exe)
 Standard basis: 6-31+G(d,p) (6D, 7F)
 Ernie: Thresh=  0.10000D-02 Tol=  0.10000D-05 Strict=F.
 Integral buffers will be    131072 words long.
 Raffenetti 2 integral format.
 Two-electron integral symmetry is turned off.
    68 basis functions,   106 primitive gaussians,    68 cartesian basis functions
     9 alpha electrons        9 beta electrons
       nuclear repulsion energy        42.1206844613 Hartrees.
 IExCor=  402 DFT=T Ex+Corr=B3LYP ExCW=0 ScaHFX=  0.200000
 ScaDFX=  0.800000  0.720000  1.000000  0.810000 ScalE2=  1.000000  1.000000
 IRadAn=      0 IRanWt=     -1 IRanGd=            0 ICorTp=0
 NAtoms=    8 NActive=    8 NUniq=    8 SFac= 7.50D-01 NAtFMM=   80 NAOKFM=F Big=F
 Leave Link  301 at Thu May 27 13:54:28 2021, MaxMem=   13107200 cpu:       0.0
 (Enter /programs/64bit/g09/g09-gfortran/bin/l302.exe)
 NPDir=0 NMtPBC=     1 NCelOv=     1 NCel=       1 NClECP=     1 NCelD=      1
         NCelK=      1 NCelE2=     1 NClLst=     1 CellRange=     0.0.
 One-electron integrals computed using PRISM.
 NBasis=    68 RedAO= T  NBF=    68
 NBsUse=    68 1.00D-06 NBFU=    68
 Precomputing XC quadrature grid using
 IXCGrd= 2 IRadAn=           0 IRanWt=          -1 IRanGd=           0 AccXCQ= 1.00D-10.
 NRdTot=     510 NPtTot=       65100 NUsed=       68787 NTot=       68819
 NSgBfM=    68    68    68    68    68 NAtAll=     8     8.
 Leave Link  302 at Thu May 27 13:54:28 2021, MaxMem=   13107200 cpu:       0.1
 (Enter /programs/64bit/g09/g09-gfortran/bin/l303.exe)
 DipDrv:  MaxL=1.
 Leave Link  303 at Thu May 27 13:54:28 2021, MaxMem=   13107200 cpu:       0.0
 (Enter /programs/64bit/g09/g09-gfortran/bin/l401.exe)
 Harris functional with IExCor=  402 diagonalized for initial guess.
 ExpMin= 4.38D-02 ExpMax= 3.05D+03 ExpMxC= 4.57D+02 IAcc=2 IRadAn=         0 AccDes= 0.00D+00
 HarFok:  IExCor=  402 AccDes= 0.00D+00 IRadAn=         0 IDoV= 1
 ScaDFX=  1.000000  1.000000  1.000000  1.000000
 FoFCou: FMM=F IPFlag=           0 FMFlag=      100000 FMFlg1=           0
         NFxFlg=           0 DoJE=T BraDBF=F KetDBF=T FulRan=T
         Omega=  0.000000  0.000000  1.000000  0.000000  0.000000 ICntrl=     500 IOpCl=  0
         NMat0=    1 NMatS0=    1 NMatT0=    0 NMatD0=    1 NMtDS0=    0 NMtDT0=    0
         I1Cent=           4 NGrid=           0.
 Symmetry not used in FoFCou.
 Harris En= -79.8977901657002    
 Leave Link  401 at Thu May 27 13:54:28 2021, MaxMem=   13107200 cpu:       0.6
 (Enter /programs/64bit/g09/g09-gfortran/bin/l502.exe)
 Closed shell SCF:
 Requested convergence on RMS density matrix=1.00D-08 within 128 cycles.
 Requested convergence on MAX density matrix=1.00D-06.
 Requested convergence on             energy=1.00D-06.
 No special actions if energy rises.
 Using DIIS extrapolation, IDIIS=  1040.
 Two-electron integral symmetry not used.
        68702 words used for storage of precomputed grid.
 Keep R1 ints in memory in canonical form, NReq=3743087.
 IEnd=      101552 IEndB=      101552 NGot=    13107200 MDV=    10273922
 LenX=    10273922 LenY=    10268857
 Symmetry not used in FoFDir.
 MinBra= 0 MaxBra= 2 Meth= 1.
 IRaf=       0 NMat=   1 IRICut=       1 DoRegI=T DoRafI=F ISym2E= 0 JSym2E=0.

 Cycle   1  Pass 1  IDiag  1:
 E= -79.7093800980750    
 DIIS: error= 3.97D-02 at cycle   1 NSaved=   1.
 NSaved= 1 IEnMin= 1 EnMin= -79.7093800980750     IErMin= 1 ErrMin= 3.97D-02
 ErrMax= 3.97D-02 EMaxC= 1.00D-01 BMatC= 1.15D-01 BMatP= 1.15D-01
 IDIUse=3 WtCom= 6.03D-01 WtEn= 3.97D-01
 Coeff-Com:  0.100D+01
 Coeff-En:   0.100D+01
 Coeff:      0.100D+01
 Gap=     0.283 Goal=   None    Shift=    0.000
 GapD=    0.283 DampG=1.000 DampE=0.500 DampFc=0.5000 IDamp=-1.
 Damping current iteration by 5.00D-01
 RMSDP=9.59D-03 MaxDP=1.40D-01              OVMax= 2.03D-01

 Cycle   2  Pass 1  IDiag  1:
 E= -79.7639117009048     Delta-E=       -0.054531602830 Rises=F Damp=T
 DIIS: error= 1.15D-02 at cycle   2 NSaved=   2.
 NSaved= 2 IEnMin= 2 EnMin= -79.7639117009048     IErMin= 2 ErrMin= 1.15D-02
 ErrMax= 1.15D-02 EMaxC= 1.00D-01 BMatC= 4.50D-03 BMatP= 1.15D-01
 IDIUse=3 WtCom= 8.85D-01 WtEn= 1.15D-01
 Coeff-Com:  0.108D+00 0.892D+00
 Coeff-En:   0.185D+00 0.815D+00
 Coeff:      0.117D+00 0.883D+00
 Gap=     0.372 Goal=   None    Shift=    0.000
 RMSDP=1.28D-03 MaxDP=9.77D-03 DE=-5.45D-02 OVMax= 1.25D-01

 Cycle   3  Pass 1  IDiag  1:
 E= -79.8403357445833     Delta-E=       -0.076424043679 Rises=F Damp=F
 DIIS: error= 2.27D-03 at cycle   3 NSaved=   3.
 NSaved= 3 IEnMin= 3 EnMin= -79.8403357445833     IErMin= 3 ErrMin= 2.27D-03
 ErrMax= 2.27D-03 EMaxC= 1.00D-01 BMatC= 1.52D-04 BMatP= 4.50D-03
 IDIUse=3 WtCom= 9.77D-01 WtEn= 2.27D-02
 Coeff-Com:  0.712D-02 0.105D+00 0.887D+00
 Coeff-En:   0.000D+00 0.000D+00 0.100D+01
 Coeff:      0.695D-02 0.103D+00 0.890D+00
 Gap=     0.365 Goal=   None    Shift=    0.000
 RMSDP=1.98D-04 MaxDP=2.15D-03 DE=-7.64D-02 OVMax= 4.56D-03

 Cycle   4  Pass 1  IDiag  1:
 E= -79.8404662343269     Delta-E=       -0.000130489744 Rises=F Damp=F
 DIIS: error= 6.99D-04 at cycle   4 NSaved=   4.
 NSaved= 4 IEnMin= 4 EnMin= -79.8404662343269     IErMin= 4 ErrMin= 6.99D-04
 ErrMax= 6.99D-04 EMaxC= 1.00D-01 BMatC= 1.05D-05 BMatP= 1.52D-04
 IDIUse=3 WtCom= 9.93D-01 WtEn= 6.99D-03
 Coeff-Com: -0.522D-03-0.518D-02 0.198D+00 0.808D+00
 Coeff-En:   0.000D+00 0.000D+00 0.000D+00 0.100D+01
 Coeff:     -0.518D-03-0.515D-02 0.197D+00 0.809D+00
 Gap=     0.365 Goal=   None    Shift=    0.000
 RMSDP=4.39D-05 MaxDP=4.51D-04 DE=-1.30D-04 OVMax= 1.22D-03

 Cycle   5  Pass 1  IDiag  1:
 E= -79.8404761699757     Delta-E=       -0.000009935649 Rises=F Damp=F
 DIIS: error= 2.49D-05 at cycle   5 NSaved=   5.
 NSaved= 5 IEnMin= 5 EnMin= -79.8404761699757     IErMin= 5 ErrMin= 2.49D-05
 ErrMax= 2.49D-05 EMaxC= 1.00D-01 BMatC= 2.33D-08 BMatP= 1.05D-05
 IDIUse=1 WtCom= 1.00D+00 WtEn= 0.00D+00
 Coeff-Com:  0.370D-03-0.496D-03-0.667D-02-0.118D-01 0.102D+01
 Coeff:      0.370D-03-0.496D-03-0.667D-02-0.118D-01 0.102D+01
 Gap=     0.365 Goal=   None    Shift=    0.000
 RMSDP=2.44D-06 MaxDP=5.28D-05 DE=-9.94D-06 OVMax= 8.59D-05

 Cycle   6  Pass 1  IDiag  1:
 E= -79.8404761945651     Delta-E=       -0.000000024589 Rises=F Damp=F
 DIIS: error= 1.00D-05 at cycle   6 NSaved=   6.
 NSaved= 6 IEnMin= 6 EnMin= -79.8404761945651     IErMin= 6 ErrMin= 1.00D-05
 ErrMax= 1.00D-05 EMaxC= 1.00D-01 BMatC= 2.82D-09 BMatP= 2.33D-08
 IDIUse=1 WtCom= 1.00D+00 WtEn= 0.00D+00
 Coeff-Com:  0.176D-03-0.200D-03-0.482D-02-0.122D-01 0.482D+00 0.535D+00
 Coeff:      0.176D-03-0.200D-03-0.482D-02-0.122D-01 0.482D+00 0.535D+00
 Gap=     0.365 Goal=   None    Shift=    0.000
 RMSDP=6.89D-07 MaxDP=1.45D-05 DE=-2.46D-08 OVMax= 2.03D-05

 Cycle   7  Pass 1  IDiag  1:
 E= -79.8404761972312     Delta-E=       -0.000000002666 Rises=F Damp=F
 DIIS: error= 1.79D-06 at cycle   7 NSaved=   7.
 NSaved= 7 IEnMin= 7 EnMin= -79.8404761972312     IErMin= 7 ErrMin= 1.79D-06
 ErrMax= 1.79D-06 EMaxC= 1.00D-01 BMatC= 9.46D-11 BMatP= 2.82D-09
 IDIUse=1 WtCom= 1.00D+00 WtEn= 0.00D+00
 Coeff-Com: -0.829D-05 0.493D-05-0.233D-03-0.907D-03-0.819D-02 0.147D+00
 Coeff-Com:  0.862D+00
 Coeff:     -0.829D-05 0.493D-05-0.233D-03-0.907D-03-0.819D-02 0.147D+00
 Coeff:      0.862D+00
 Gap=     0.365 Goal=   None    Shift=    0.000
 RMSDP=1.24D-07 MaxDP=2.37D-06 DE=-2.67D-09 OVMax= 3.26D-06

 Cycle   8  Pass 1  IDiag  1:
 E= -79.8404761973264     Delta-E=       -0.000000000095 Rises=F Damp=F
 DIIS: error= 8.40D-08 at cycle   8 NSaved=   8.
 NSaved= 8 IEnMin= 8 EnMin= -79.8404761973264     IErMin= 8 ErrMin= 8.40D-08
 ErrMax= 8.40D-08 EMaxC= 1.00D-01 BMatC= 3.20D-13 BMatP= 9.46D-11
 IDIUse=1 WtCom= 1.00D+00 WtEn= 0.00D+00
 Coeff-Com: -0.292D-05 0.217D-05-0.405D-04-0.205D-03-0.431D-02 0.368D-01
 Coeff-Com:  0.228D+00 0.740D+00
 Coeff:     -0.292D-05 0.217D-05-0.405D-04-0.205D-03-0.431D-02 0.368D-01
 Coeff:      0.228D+00 0.740D+00
 Gap=     0.365 Goal=   None    Shift=    0.000
 RMSDP=1.26D-08 MaxDP=1.43D-07 DE=-9.53D-11 OVMax= 2.17D-07

 Cycle   9  Pass 1  IDiag  1:
 E= -79.8404761973269     Delta-E=       -0.000000000000 Rises=F Damp=F
 DIIS: error= 1.45D-08 at cycle   9 NSaved=   9.
 NSaved= 9 IEnMin= 9 EnMin= -79.8404761973269     IErMin= 9 ErrMin= 1.45D-08
 ErrMax= 1.45D-08 EMaxC= 1.00D-01 BMatC= 9.96D-15 BMatP= 3.20D-13
 IDIUse=1 WtCom= 1.00D+00 WtEn= 0.00D+00
 Coeff-Com: -0.166D-08 0.138D-06 0.711D-05 0.108D-04-0.337D-03-0.241D-02
 Coeff-Com: -0.117D-01 0.122D+00 0.892D+00
 Coeff:     -0.166D-08 0.138D-06 0.711D-05 0.108D-04-0.337D-03-0.241D-02
 Coeff:     -0.117D-01 0.122D+00 0.892D+00
 Gap=     0.365 Goal=   None    Shift=    0.000
 RMSDP=2.10D-09 MaxDP=2.27D-08 DE=-4.26D-13 OVMax= 4.32D-08

 SCF Done:  E(RB3LYP) =  -79.8404761973     A.U. after    9 cycles
             Convg  =    0.2099D-08             -V/T =  2.0109
 KE= 7.898115162291D+01 PE=-2.679912302279D+02 EE= 6.704891794636D+01
 Leave Link  502 at Thu May 27 13:54:33 2021, MaxMem=   13107200 cpu:       4.8
 (Enter /programs/64bit/g09/g09-gfortran/bin/l601.exe)
 Copying SCF densities to generalized density rwf, IOpCl= 0 IROHF=0.

 **********************************************************************

            Population analysis using the SCF density.

 **********************************************************************

 Alpha  occ. eigenvalues --  -10.17727 -10.17665  -0.75309  -0.61312  -0.43913
 Alpha  occ. eigenvalues --   -0.43836  -0.35669  -0.34762  -0.34718
 Alpha virt. eigenvalues --    0.01746   0.03178   0.05275   0.05289   0.07954
 Alpha virt. eigenvalues --    0.08968   0.08974   0.14239   0.18984   0.19055
 Alpha virt. eigenvalues --    0.20460   0.20601   0.24626   0.29434   0.32837
 Alpha virt. eigenvalues --    0.62043   0.64322   0.64382   0.66424   0.66530
 Alpha virt. eigenvalues --    0.69317   0.92051   0.92125   0.97137   0.97212
 Alpha virt. eigenvalues --    0.99690   1.09704   1.11298   1.32022   1.32258
 Alpha virt. eigenvalues --    1.46330   1.68806   1.69050   1.89611   2.04162
 Alpha virt. eigenvalues --    2.04363   2.08668   2.08793   2.09277   2.09556
 Alpha virt. eigenvalues --    2.29189   2.29533   2.37958   2.49251   2.49628
 Alpha virt. eigenvalues --    2.66240   2.72184   2.80607   2.80745   2.91508
 Alpha virt. eigenvalues --    2.92064   3.22306   3.28317   3.36418   3.36665
 Alpha virt. eigenvalues --    3.52161   3.52372   4.33363   4.58214
          Condensed to atoms (all electrons):
              1          2          3          4          5          6
     1  C    5.101594   0.258591   0.405383   0.404759   0.405307  -0.046707
     2  C    0.258591   5.096963  -0.046457  -0.044854  -0.046489   0.405564
     3  H    0.405383  -0.046457   0.556321  -0.028487  -0.027798   0.004827
     4  H    0.404759  -0.044854  -0.028487   0.556010  -0.028385  -0.004391
     5  H    0.405307  -0.046489  -0.027798  -0.028385   0.556841  -0.004491
     6  H   -0.046707   0.405564   0.004827  -0.004391  -0.004491   0.555996
     7  H   -0.046596   0.405441  -0.004494  -0.004387   0.004807  -0.027848
     8  H   -0.047376   0.406588  -0.004538   0.004720  -0.004532  -0.028009
              7          8
     1  C   -0.046596  -0.047376
     2  C    0.405441   0.406588
     3  H   -0.004494  -0.004538
     4  H   -0.004387   0.004720
     5  H    0.004807  -0.004532
     6  H   -0.027848  -0.028009
     7  H    0.556106  -0.028016
     8  H   -0.028016   0.555904
 Mulliken atomic charges:
              1
     1  C   -0.434956
     2  C   -0.435347
     3  H    0.145243
     4  H    0.145014
     5  H    0.144740
     6  H    0.145059
     7  H    0.144987
     8  H    0.145259
 Sum of Mulliken atomic charges =  -0.00000
 Mulliken charges with hydrogens summed into heavy atoms:
              1
     1  C    0.000042
     2  C   -0.000042
 Sum of Mulliken charges with hydrogens summed into heavy atoms =  -0.00000
 Electronic spatial extent (au):  <R**2>=            148.3474
 Charge=             -0.0000 electrons
 Dipole moment (field-independent basis, Debye):
    X=              0.0020    Y=             -0.0003    Z=             -0.0039  Tot=              0.0044
 Quadrupole moment (field-independent basis, Debye-Ang):
   XX=            -14.9388   YY=            -14.9466   ZZ=            -16.1970
   XY=             -0.0072   XZ=              0.0125   YZ=              0.0233
 Traceless Quadrupole moment (field-independent basis, Debye-Ang):
   XX=              0.4220   YY=              0.4142   ZZ=             -0.8362
   XY=             -0.0072   XZ=              0.0125   YZ=              0.0233
 Octapole moment (field-independent basis, Debye-Ang**2):
  XXX=             -0.0024  YYY=             -0.0116  ZZZ=            -37.5314  XYY=              0.0141
  XXY=             -0.0039  XXZ=            -11.5187  XZZ=              0.0028  YZZ=             -0.0042
  YYZ=            -11.5220  XYZ=             -0.0019
 Hexadecapole moment (field-independent basis, Debye-Ang**3):
 XXXX=            -31.2738 YYYY=            -31.3104 ZZZZ=           -157.2998 XXXY=              0.0080
 XXXZ=             -1.3238 YYYX=              0.0023 YYYZ=              0.0044 ZZZX=              0.0027
 ZZZY=              0.0295 XXYY=            -10.4306 XXZZ=            -29.5540 YYZZ=            -29.5423
 XXYZ=              0.0015 YYXZ=              1.3118 ZZXY=              0.0173
 N-N= 4.212068446132D+01 E-N=-2.679912304025D+02  KE= 7.898115162291D+01
 No NMR shielding tensors so no spin-rotation constants.
 Leave Link  601 at Thu May 27 13:54:34 2021, MaxMem=   13107200 cpu:       0.0
 (Enter /programs/64bit/g09/g09-gfortran/bin/l701.exe)
 Compute integral first derivatives.
 ... and contract with generalized density number  0.
 Leave Link  701 at Thu May 27 13:54:34 2021, MaxMem=   13107200 cpu:       0.0
 (Enter /programs/64bit/g09/g09-gfortran/bin/l702.exe)
 L702 exits ... SP integral derivatives will be done elsewhere.
 Leave Link  702 at Thu May 27 13:54:34 2021, MaxMem=   13107200 cpu:       0.0
 (Enter /programs/64bit/g09/g09-gfortran/bin/l703.exe)
 Compute integral first derivatives, UseDBF=F ICtDFT=           0.
 Integral derivatives from FoFDir, PRISM(SPDF).
 Calling FoFJK, ICntrl=      2127 FMM=F ISym2X=0 I1Cent= 0 IOpClX= 0 NMat=1 NMatS=1 NMatT=0.
 FoFCou: FMM=F IPFlag=           0 FMFlag=      100000 FMFlg1=         800
         NFxFlg=           0 DoJE=F BraDBF=F KetDBF=F FulRan=T
         Omega=  0.000000  0.000000  1.000000  0.000000  0.000000 ICntrl=    2127 IOpCl=  0
         NMat0=    1 NMatS0=    1 NMatT0=    0 NMatD0=    1 NMtDS0=    0 NMtDT0=    0
         I1Cent=           0 NGrid=           0.
 Symmetry not used in FoFCou.
 Leave Link  703 at Thu May 27 13:54:35 2021, MaxMem=   13107200 cpu:       1.1
 (Enter /programs/64bit/g09/g09-gfortran/bin/l716.exe)
 Dipole        = 7.84128564D-04-1.37089944D-04-1.53497165D-03
 -------------------------------------------------------------------
 Center     Atomic                   Forces (Hartrees/Bohr)
 Number     Number              X              Y              Z
 -------------------------------------------------------------------
      1        6          -0.001218174    0.001050575    0.012490599
      2        6          -0.000571740   -0.001064192   -0.013672395
      3        1           0.000457492    0.000491201   -0.005522380
      4        1           0.000244194    0.000524430   -0.003472629
      5        1           0.001134593   -0.001087160   -0.004820372
      6        1           0.001614384   -0.000010105    0.005122454
      7        1          -0.000863345    0.001492271    0.005068065
      8        1          -0.000797404   -0.001397022    0.004806658
 -------------------------------------------------------------------
 Cartesian Forces:  Max     0.013672395 RMS     0.004560874
 -----------------------------------------------------------------------------------------------
                       Internal Coordinate Forces (Hartree/Bohr or radian)
  Cent   Atom   N1       Length/X         N2         Alpha/Y        N3         Beta/Z          J
 -----------------------------------------------------------------------------------------------
      1  C 
      2  C        1   0.001325(     1)
      3  H        1   0.002234(     2)      2   0.010455(     8)
      4  H        1   0.000648(     3)      2   0.007149(     9)      3   0.000098(    14)     0
      5  H        1   0.000147(     4)      2   0.010441(    10)      3   0.000858(    15)     0
      6  H        2   0.000146(     5)      1   0.011100(    11)      3   0.000001(    16)     0
      7  H        2   0.000024(     6)      1   0.011070(    12)      6  -0.000003(    17)     0
      8  H        2   0.000048(     7)      1   0.010479(    13)      6  -0.000016(    18)     0
 -----------------------------------------------------------------------------------------------
 Internal  Forces:  Max     0.011100077 RMS     0.005929941
 Force constants in Cartesian coordinates: 
                1             2             3             4             5 
      1  0.658488D+00
      2 -0.626211D-03  0.654891D+00
      3  0.106270D-02  0.364390D-02  0.597844D+00
      4 -0.854604D-01 -0.163436D-03 -0.135876D-03  0.657331D+00
      5 -0.163458D-03 -0.856239D-01 -0.104319D-03  0.719868D-04  0.657226D+00
      6 -0.243888D-05  0.430470D-05 -0.281399D+00 -0.385596D-04  0.510508D-04
      7 -0.314530D+00 -0.818517D-04  0.835674D-01  0.870507D-02 -0.164063D-05
      8 -0.225546D-03 -0.788010D-01 -0.184381D-03 -0.607334D-05  0.732540D-03
      9  0.937841D-01 -0.237120D-03 -0.104814D+00  0.252181D-01 -0.475281D-05
     10 -0.136162D+00 -0.996921D-01 -0.431111D-01  0.285527D-02  0.361828D-02
     11 -0.997791D-01 -0.251415D+00 -0.747628D-01  0.361831D-02  0.703327D-02
     12 -0.482730D-01 -0.836399D-01 -0.107540D+00 -0.125074D-01 -0.216633D-01
     13 -0.136433D+00  0.100563D+00 -0.413831D-01  0.272096D-02 -0.344566D-02
     14  0.100794D+00 -0.253149D+00  0.714076D-01 -0.344128D-02  0.668890D-02
     15 -0.465738D-01  0.802332D-01 -0.104091D+00 -0.125748D-01  0.217724D-01
     16  0.868075D-02  0.000000D+00  0.000000D+00 -0.311528D+00  0.000000D+00
     17 -0.104173D-04  0.722989D-03  0.000000D+00  0.123663D-04 -0.792957D-01
     18  0.251462D-01  0.000000D+00  0.000000D+00  0.925117D-01  0.000000D+00
     19  0.271778D-02 -0.345059D-02  0.000000D+00 -0.137283D+00  0.100480D+00
     20 -0.344174D-02  0.668684D-02  0.000000D+00  0.100473D+00 -0.253295D+00
     21 -0.125706D-01  0.217729D-01  0.000000D+00 -0.462223D-01  0.800603D-01
     22  0.270000D-02  0.345098D-02  0.000000D+00 -0.137341D+00 -0.100559D+00
     23  0.345254D-02  0.668755D-02  0.000000D+00 -0.100565D+00 -0.253466D+00
     24 -0.125731D-01 -0.217773D-01  0.000000D+00 -0.462508D-01 -0.801108D-01
                6             7             8             9            10 
      6  0.591908D+00
      7  0.000000D+00  0.316016D+00
      8  0.000000D+00  0.951921D-04  0.588112D-01
      9  0.000000D+00 -0.894818D-01  0.275766D-03  0.876803D-01
     10  0.000000D+00 -0.517491D-02 -0.272926D-01 -0.149914D-01  0.121674D+00
     11  0.000000D+00  0.172320D-02  0.943923D-02  0.499202D-02  0.108967D+00
     12  0.000000D+00  0.300298D-02  0.150042D-01  0.869947D-02  0.463190D-01
     13  0.000000D+00 -0.501527D-02  0.274289D-01 -0.145290D-01  0.168075D-01
     14  0.000000D+00 -0.173490D-02  0.981793D-02 -0.502591D-02  0.143997D-01
     15  0.000000D+00  0.291137D-02 -0.150955D-01  0.843409D-02  0.117836D-01
     16  0.828311D-01  0.000000D+00  0.000000D+00  0.000000D+00  0.000000D+00
     17 -0.258428D-05  0.000000D+00  0.603851D-03  0.000000D+00  0.525032D-03
     18 -0.103521D+00  0.000000D+00  0.000000D+00  0.000000D+00  0.000000D+00
     19 -0.413813D-01  0.000000D+00 -0.522847D-03  0.000000D+00 -0.454601D-03
     20  0.716753D-01  0.000000D+00 -0.301866D-03  0.000000D+00 -0.262465D-03
     21 -0.103474D+00  0.000000D+00  0.000000D+00  0.000000D+00  0.000000D+00
     22 -0.414088D-01  0.000000D+00  0.522941D-03  0.000000D+00  0.454683D-03
     23 -0.717281D-01  0.000000D+00 -0.301920D-03  0.000000D+00 -0.262511D-03
     24 -0.103514D+00  0.000000D+00  0.000000D+00  0.000000D+00  0.000000D+00
               11            12            13            14            15 
     11  0.247498D+00
     12  0.802267D-01  0.901664D-01
     13 -0.145289D-01  0.114585D-01  0.121920D+00
     14 -0.125551D-01  0.100724D-01 -0.110017D+00  0.249197D+00
     15 -0.104559D-01  0.867412D-02  0.444536D-01 -0.764541D-01  0.869826D-01
     16  0.000000D+00  0.000000D+00  0.000000D+00  0.000000D+00  0.000000D+00
     17 -0.303128D-03  0.000000D+00 -0.521404D-03 -0.301007D-03  0.000000D+00
     18  0.000000D+00  0.000000D+00  0.000000D+00  0.000000D+00  0.000000D+00
     19  0.262465D-03  0.000000D+00  0.451460D-03  0.260629D-03  0.000000D+00
     20  0.151534D-03  0.000000D+00  0.260651D-03  0.150474D-03  0.000000D+00
     21  0.000000D+00  0.000000D+00  0.000000D+00  0.000000D+00  0.000000D+00
     22 -0.262512D-03  0.000000D+00 -0.451541D-03 -0.260675D-03  0.000000D+00
     23  0.151561D-03  0.000000D+00  0.260698D-03  0.150501D-03  0.000000D+00
     24  0.000000D+00  0.000000D+00  0.000000D+00  0.000000D+00  0.000000D+00
               16            17            18            19            20 
     16  0.312855D+00
     17  0.000000D+00  0.589865D-01
     18 -0.886673D-01  0.000000D+00  0.866149D-01
     19 -0.500360D-02  0.273525D-01 -0.144943D-01  0.122381D+00
     20 -0.172572D-02  0.979202D-02 -0.499901D-02 -0.109843D+00  0.249217D+00
     21  0.291788D-02 -0.150519D-01  0.845243D-02  0.442991D-01 -0.767291D-01
     22 -0.500430D-02 -0.273579D-01 -0.144963D-01  0.171903D-01  0.145392D-01
     23  0.172607D-02  0.979449D-02  0.500002D-02 -0.145390D-01 -0.124011D-01
     24  0.291828D-02  0.150549D-01  0.845360D-02  0.115765D-01  0.100528D-01
               21            22            23            24 
     21  0.865693D-01
     22  0.115760D-01  0.122452D+00
     23 -0.100522D-01  0.109927D+00  0.249385D+00
     24  0.845193D-02  0.443291D-01  0.767803D-01  0.866084D-01
 Force constants in internal coordinates: 
                1             2             3             4             5 
      1  0.281399D+00
      2  0.000000D+00  0.346904D+00
      3  0.000000D+00  0.000000D+00  0.344193D+00
      4  0.000000D+00  0.000000D+00  0.000000D+00  0.343184D+00
      5  0.000000D+00  0.000000D+00  0.000000D+00  0.000000D+00  0.343464D+00
      6  0.000000D+00  0.000000D+00  0.000000D+00  0.000000D+00  0.000000D+00
      7  0.000000D+00  0.000000D+00  0.000000D+00  0.000000D+00  0.000000D+00
      8  0.000000D+00  0.000000D+00  0.000000D+00  0.000000D+00  0.000000D+00
      9  0.000000D+00  0.000000D+00  0.000000D+00  0.000000D+00  0.000000D+00
     10  0.000000D+00  0.000000D+00  0.000000D+00  0.000000D+00  0.000000D+00
     11  0.000000D+00  0.000000D+00  0.000000D+00  0.000000D+00  0.000000D+00
     12  0.000000D+00  0.000000D+00  0.000000D+00  0.000000D+00  0.000000D+00
     13  0.000000D+00  0.000000D+00  0.000000D+00  0.000000D+00  0.000000D+00
     14  0.000000D+00  0.000000D+00  0.000000D+00  0.000000D+00  0.000000D+00
     15  0.000000D+00  0.000000D+00  0.000000D+00  0.000000D+00  0.000000D+00
     16  0.000000D+00  0.000000D+00  0.000000D+00  0.000000D+00  0.000000D+00
     17  0.000000D+00  0.000000D+00  0.000000D+00  0.000000D+00  0.000000D+00
     18  0.000000D+00  0.000000D+00  0.000000D+00  0.000000D+00  0.000000D+00
                6             7             8             9            10 
      6  0.343220D+00
      7  0.000000D+00  0.343455D+00
      8  0.000000D+00  0.000000D+00  0.241425D+00
      9  0.000000D+00  0.000000D+00  0.417339D-01  0.240730D+00
     10  0.000000D+00  0.000000D+00  0.402456D-01  0.417365D-01  0.241427D+00
     11  0.000000D+00  0.000000D+00  0.000000D+00  0.000000D+00  0.000000D+00
     12  0.000000D+00  0.000000D+00  0.000000D+00  0.000000D+00  0.000000D+00
     13  0.000000D+00  0.000000D+00  0.000000D+00  0.000000D+00  0.000000D+00
     14  0.000000D+00  0.000000D+00 -0.655408D-01  0.000000D+00  0.655406D-01
     15  0.000000D+00  0.000000D+00  0.643633D-01 -0.643154D-01 -0.117219D-02
     16  0.000000D+00  0.000000D+00  0.000000D+00  0.000000D+00  0.000000D+00
     17  0.000000D+00  0.000000D+00  0.000000D+00  0.000000D+00  0.000000D+00
     18  0.000000D+00  0.000000D+00  0.000000D+00  0.000000D+00  0.000000D+00
               11            12            13            14            15 
     11  0.239399D+00
     12  0.404438D-01  0.239399D+00
     13  0.404414D-01  0.404413D-01  0.239400D+00
     14  0.000000D+00  0.000000D+00  0.000000D+00  0.221438D+00
     15  0.000000D+00  0.000000D+00  0.000000D+00 -0.107278D+00  0.223389D+00
     16  0.000000D+00  0.000000D+00  0.000000D+00  0.690000D-02  0.690000D-02
     17 -0.643526D-01 -0.199541D-05  0.643526D-01  0.230000D-02  0.230000D-02
     18  0.643507D-01 -0.643506D-01  0.000000D+00  0.230000D-02  0.230000D-02
               16            17            18 
     16  0.207000D-01
     17  0.690002D-02  0.225292D+00
     18  0.690001D-02 -0.109197D+00  0.225295D+00
 Leave Link  716 at Thu May 27 13:54:35 2021, MaxMem=   13107200 cpu:       0.0
 (Enter /programs/64bit/g09/g09-gfortran/bin/l103.exe)

 GradGradGradGradGradGradGradGradGradGradGradGradGradGradGradGradGradGrad
 Berny optimization.
 Search for a local minimum.
 Step number   1 out of a maximum of    2
 All quantities printed in internal units (Hartrees-Bohrs-Radians)
 Second derivative matrix not updated -- first step.
 The second derivative matrix:
                          d1        a1        t1        d2        a2
           d1           0.28140
           a1           0.00000   0.24142
           t1          -0.00000  -0.06554   0.22144
           d2           0.00000  -0.00000  -0.00000   0.34690
           a2          -0.00000   0.04173  -0.00000   0.00000   0.24073
           t2          -0.00000   0.06436  -0.10728   0.00000  -0.06432
           d3           0.00000   0.00000   0.00000  -0.00000   0.00000
           d4           0.00000  -0.00000  -0.00000   0.00000  -0.00000
           a3          -0.00000   0.04025   0.06554  -0.00000   0.04174
           d5          -0.00000   0.00000  -0.00000   0.00000   0.00000
           a4          -0.00000   0.00000  -0.00000   0.00000  -0.00000
           t3           0.00000   0.00000   0.00690   0.00000  -0.00000
           d6          -0.00000   0.00000   0.00000   0.00000  -0.00000
           a5          -0.00000   0.00000  -0.00000   0.00000   0.00000
           t4           0.00000   0.00000   0.00230   0.00000  -0.00000
           d7          -0.00000   0.00000  -0.00000   0.00000  -0.00000
           a6          -0.00000   0.00000  -0.00000   0.00000  -0.00000
           t5           0.00000   0.00000   0.00230   0.00000  -0.00000
                          t2        d3        d4        a3        d5
           t2           0.22339
           d3           0.00000   0.34419
           d4          -0.00000  -0.00000   0.34318
           a3          -0.00117  -0.00000  -0.00000   0.24143
           d5          -0.00000  -0.00000   0.00000  -0.00000   0.34346
           a4          -0.00000   0.00000  -0.00000   0.00000   0.00000
           t3           0.00690  -0.00000  -0.00000   0.00000  -0.00000
           d6           0.00000   0.00000   0.00000  -0.00000   0.00000
           a5          -0.00000  -0.00000   0.00000  -0.00000  -0.00000
           t4           0.00230   0.00000  -0.00000  -0.00000  -0.00000
           d7          -0.00000   0.00000   0.00000  -0.00000  -0.00000
           a6           0.00000   0.00000  -0.00000   0.00000  -0.00000
           t5           0.00230   0.00000  -0.00000   0.00000   0.00000
                          a4        t3        d6        a5        t4
           a4           0.23940
           t3           0.00000   0.02070
           d6          -0.00000   0.00000   0.34322
           a5           0.04044   0.00000  -0.00000   0.23940
           t4          -0.06435   0.00690   0.00000  -0.00000   0.22529
           d7          -0.00000   0.00000  -0.00000   0.00000   0.00000
           a6           0.04044  -0.00000   0.00000   0.04044   0.06435
           t5           0.06435   0.00690  -0.00000  -0.06435  -0.10920
                          d7        a6        t5
           d7           0.34345
           a6           0.00000   0.23940
           t5          -0.00000   0.00000   0.22529
     Eigenvalues --- 1000.000001000.000001000.000001000.000001000.00000
     Eigenvalues --- 1000.000001000.000001000.000001000.000001000.00000
     Eigenvalues --- 1000.000001000.000001000.000001000.000001000.00000
     Eigenvalues --- 1000.000001000.000001000.00000
 Angle between quadratic step and forces=  90.00 degrees.
 Linear search not attempted -- first point.
 Variable       Old X    -DE/DX   Delta X   Delta X   Delta X     New X
                                 (Linear)    (Quad)   (Total)
    d1        2.91834   0.00132   0.00000   0.00000   0.00000   2.91834
    a1        1.90318   0.01046   0.00000   0.00000   0.00000   1.90318
    t1        2.09440   0.00010   0.00000   0.00000   0.00000   2.09440
    d2        2.06181   0.00223   0.00000   0.00000   0.00000   2.06181
    a2        1.92049   0.00715   0.00000   0.00000   0.00000   1.92049
    t2       -2.09436   0.00086   0.00000   0.00000   0.00000  -2.09436
    d3        2.06628   0.00065   0.00000   0.00000   0.00000   2.06628
    d4        2.06796   0.00015   0.00000   0.00000   0.00000   2.06796
    a3        1.90318   0.01044   0.00000   0.00000   0.00000   1.90318
    d5        2.06749   0.00015   0.00000   0.00000   0.00000   2.06749
    a4        1.90320   0.01110   0.00000   0.00000   0.00000   1.90320
    t3        3.14159   0.00000   0.00000   0.00000   0.00000   3.14159
    d6        2.06790   0.00002   0.00000   0.00000   0.00000   2.06790
    a5        1.90320   0.01107   0.00000   0.00000   0.00000   1.90320
    t4        2.09440  -0.00000   0.00000   0.00000   0.00000   2.09440
    d7        2.06751   0.00005   0.00000   0.00000   0.00000   2.06751
    a6        1.90317   0.01048   0.00000   0.00000   0.00000   1.90317
    t5       -2.09440  -0.00002   0.00000   0.00000   0.00000  -2.09440
         Item               Value     Threshold  Converged?
 Maximum Force            0.000000     0.000450     YES
 RMS     Force            0.000000     0.000300     YES
 Maximum Displacement     0.000000     0.001800     YES
 RMS     Displacement     0.000000     0.001200     YES
 Predicted change in Energy=-0.000000D+00
 Optimization completed.
    -- Stationary point found.
                       ----------------------------
                       !   Optimized Parameters   !
                       ! (Angstroms and Degrees)  !
 ----------------------                            ----------------------
 !      Name          Value   Derivative information (Atomic Units)     !
 ------------------------------------------------------------------------
 !       d1          1.5443   -DE/DX =    0.0013                        !
 !       a1        109.0442   -DE/DX =    0.0105                        !
 !       t1        120.0      -DE/DX =    0.0001                        !
 !       d2          1.0911   -DE/DX =    0.0022                        !
 !       a2        110.0358   -DE/DX =    0.0071                        !
 !       t2       -119.9979   -DE/DX =    0.0009                        !
 !       d3          1.0934   -DE/DX =    0.0006                        !
 !       d4          1.0943   -DE/DX =    0.0001                        !
 !       a3        109.0442   -DE/DX =    0.0104                        !
 !       d5          1.0941   -DE/DX =    0.0001                        !
 !       a4        109.0453   -DE/DX =    0.0111                        !
 !       t3        180.0      -DE/DX =    0.0                           !
 !       d6          1.0943   -DE/DX =    0.0                           !
 !       a5        109.0453   -DE/DX =    0.0111                        !
 !       t4        120.0      -DE/DX =    0.0                           !
 !       d7          1.0941   -DE/DX =    0.0                           !
 !       a6        109.0437   -DE/DX =    0.0105                        !
 !       t5       -120.0      -DE/DX =    0.0                           !
 ------------------------------------------------------------------------
 GradGradGradGradGradGradGradGradGradGradGradGradGradGradGradGradGradGrad

 Leave Link  103 at Thu May 27 13:54:35 2021, MaxMem=   13107200 cpu:       0.0
 (Enter /programs/64bit/g09/g09-gfortran/bin/l9999.exe)
 1\1\GINC-MOLMOD\Force\RB3LYP\6-31+G(d,p)\C2H6\OSPITE\27-May-2021\1\\#p
  b3lyp/6-31+g(d,p) force nosym\\c2h6 molecule\\0,1\C\C,1,d1\H,1,d2,2,a
 1\H,1,d3,2,a2,3,t1,0\H,1,d4,2,a3,3,t2,0\H,2,d5,1,a4,3,t3,0\H,2,d6,1,a5
 ,6,t4,0\H,2,d7,1,a6,6,t5,0\\d1=1.54431674\a1=109.04423609\t1=120.00003
 259\d2=1.09106029\a2=110.03580981\t2=-119.99790584\d3=1.0934298\d4=1.0
 9431809\a3=109.04415408\d5=1.09407095\a4=109.04527001\t3=179.99999825\
 d6=1.09428563\a5=109.04526425\t4=120.00002417\d7=1.09407925\a6=109.043
 66812\t5=-120.00001895\\Version=EM64L-G09RevA.02\HF=-79.8404762\RMSD=2
 .099e-09\RMSF=4.561e-03\Dipole=0.0007841,-0.0001371,-0.001535\Quadrupo
 le=0.3137582,0.3079496,-0.6217077,-0.0053241,0.009258,0.0173484\PG=C01
  [X(C2H6)]\\@


 UNLESS WE CHANGE DIRECTIONS, WE WILL WIND UP WHERE WE ARE HEADED.
     -- CONFUCIUS
 Job cpu time:  0 days  0 hours  0 minutes  6.7 seconds.
 File lengths (MBytes):  RWF=      5 Int=      0 D2E=      0 Chk=      1 Scr=      1
 Normal termination of Gaussian 09 at Thu May 27 13:54:35 2021.
