 Entering Gaussian System, Link 0=g09
 Input=c2h6_004.com
 Output=c2h6_004.log
 Initial command:
 /programs/64bit/g09/g09-gfortran/bin/l1.exe /data/scratch/Gau-16925.inp -scrdir=/data/scratch/
 Entering Link 1 = /programs/64bit/g09/g09-gfortran/bin/l1.exe PID=     16926.
  
 Copyright (c) 1988,1990,1992,1993,1995,1998,2003,2009, Gaussian, Inc.
                  All Rights Reserved.
  
 This is part of the Gaussian(R) 09 program.  It is based on
 the Gaussian(R) 03 system (copyright 2003, Gaussian, Inc.),
 the Gaussian(R) 98 system (copyright 1998, Gaussian, Inc.),
 the Gaussian(R) 94 system (copyright 1995, Gaussian, Inc.),
 the Gaussian 92(TM) system (copyright 1992, Gaussian, Inc.),
 the Gaussian 90(TM) system (copyright 1990, Gaussian, Inc.),
 the Gaussian 88(TM) system (copyright 1988, Gaussian, Inc.),
 the Gaussian 86(TM) system (copyright 1986, Carnegie Mellon
 University), and the Gaussian 82(TM) system (copyright 1983,
 Carnegie Mellon University). Gaussian is a federally registered
 trademark of Gaussian, Inc.
  
 This software contains proprietary and confidential information,
 including trade secrets, belonging to Gaussian, Inc.
  
 This software is provided under written license and may be
 used, copied, transmitted, or stored only in accord with that
 written license.
  
 The following legend is applicable only to US Government
 contracts under FAR:
  
                    RESTRICTED RIGHTS LEGEND
  
 Use, reproduction and disclosure by the US Government is
 subject to restrictions as set forth in subparagraphs (a)
 and (c) of the Commercial Computer Software - Restricted
 Rights clause in FAR 52.227-19.
  
 Gaussian, Inc.
 340 Quinnipiac St., Bldg. 40, Wallingford CT 06492
  
  
 ---------------------------------------------------------------
 Warning -- This program may not be used in any manner that
 competes with the business of Gaussian, Inc. or will provide
 assistance to any competitor of Gaussian, Inc.  The licensee
 of this program is prohibited from giving any competitor of
 Gaussian, Inc. access to this program.  By using this program,
 the user acknowledges that Gaussian, Inc. is engaged in the
 business of creating and licensing software in the field of
 computational chemistry and represents and warrants to the
 licensee that it is not a competitor of Gaussian, Inc. and that
 it will not use this program in any manner prohibited above.
 ---------------------------------------------------------------
  

 Cite this work as:
 Gaussian 09, Revision A.02,
 M. J. Frisch, G. W. Trucks, H. B. Schlegel, G. E. Scuseria, 
 M. A. Robb, J. R. Cheeseman, G. Scalmani, V. Barone, B. Mennucci, 
 G. A. Petersson, H. Nakatsuji, M. Caricato, X. Li, H. P. Hratchian, 
 A. F. Izmaylov, J. Bloino, G. Zheng, J. L. Sonnenberg, M. Hada, 
 M. Ehara, K. Toyota, R. Fukuda, J. Hasegawa, M. Ishida, T. Nakajima, 
 Y. Honda, O. Kitao, H. Nakai, T. Vreven, J. A. Montgomery, Jr., 
 J. E. Peralta, F. Ogliaro, M. Bearpark, J. J. Heyd, E. Brothers, 
 K. N. Kudin, V. N. Staroverov, R. Kobayashi, J. Normand, 
 K. Raghavachari, A. Rendell, J. C. Burant, S. S. Iyengar, J. Tomasi, 
 M. Cossi, N. Rega, J. M. Millam, M. Klene, J. E. Knox, J. B. Cross, 
 V. Bakken, C. Adamo, J. Jaramillo, R. Gomperts, R. E. Stratmann, 
 O. Yazyev, A. J. Austin, R. Cammi, C. Pomelli, J. W. Ochterski, 
 R. L. Martin, K. Morokuma, V. G. Zakrzewski, G. A. Voth, 
 P. Salvador, J. J. Dannenberg, S. Dapprich, A. D. Daniels, 
 O. Farkas, J. B. Foresman, J. V. Ortiz, J. Cioslowski, 
 and D. J. Fox, Gaussian, Inc., Wallingford CT, 2009.
 
 ******************************************
 Gaussian 09:  EM64L-G09RevA.02 11-Jun-2009
                27-May-2021 
 ******************************************
 %chk=c2h6_004.chk
 %mem=100MB
 --------------------------------
 #p b3lyp/6-31+g(d,p) force nosym
 --------------------------------
 1/10=7,30=1,38=1/1,3;
 2/12=2,15=1,17=6,18=5,40=1/2;
 3/5=1,6=6,7=111,11=2,16=1,25=1,30=1,71=1,74=-5/1,2,3;
 4//1;
 5/5=2,38=5/2;
 6/7=2,8=2,9=2,10=2,28=1/1;
 7/29=1,30=1/1,2,3,16;
 1/10=7,30=1/3;
 99//99;
 Leave Link    1 at Thu May 27 13:49:59 2021, MaxMem=   13107200 cpu:       0.0
 (Enter /programs/64bit/g09/g09-gfortran/bin/l101.exe)
 -------------
 c2h6 molecule
 -------------
 Symbolic Z-matrix:
 Charge =  0 Multiplicity = 1
 C1
 C2                   1    d1
 H3                   1    d2       2    a1
 H4                   1    d3       2    a2       3    t1       0
 H5                   1    d4       2    a3       3    t2       0
 H6                   2    d5       1    a4       3    t3       0
 H7                   2    d6       1    a5       6    t4       0
 H8                   2    d7       1    a6       6    t5       0
       Variables:
       Constants:
  d1                    3.54848                  
  a1                  109.00009                  
  t1                  120.00002                  
  d2                    1.09179                  
  a2                  109.99989                  
  t2                 -119.99998                  
  d3                    1.09214                  
  d4                    1.09206                  
  a3                  109.00001                  
  d5                    1.09142                  
  a4                  109.00011                  
  t3                  180.                       
  d6                    1.09176                  
  a5                  109.00003                  
  t4                  120.00002                  
  d7                    1.09187                  
  a6                  109.00003                  
  t5                 -120.00001                  
 
 NAtoms=      8 NQM=      8 NQMF=      0 NMic=      0 NMicF=      0 NTot=      8.
                    Isotopes and Nuclear Properties:
 (Nuclear quadrupole moments (NQMom) in fm**2, nuclear magnetic moments (NMagM)
  in nuclear magnetons)

  Atom         1           2           3           4           5           6           7           8
 IAtWgt=          12          12           1           1           1           1           1           1
 AtmWgt=  12.0000000  12.0000000   1.0078250   1.0078250   1.0078250   1.0078250   1.0078250   1.0078250
 NucSpn=           0           0           1           1           1           1           1           1
 AtZEff=   0.0000000   0.0000000   0.0000000   0.0000000   0.0000000   0.0000000   0.0000000   0.0000000
 NQMom=    0.0000000   0.0000000   0.0000000   0.0000000   0.0000000   0.0000000   0.0000000   0.0000000
 NMagM=    0.0000000   0.0000000   2.7928460   2.7928460   2.7928460   2.7928460   2.7928460   2.7928460
 Leave Link  101 at Thu May 27 13:49:59 2021, MaxMem=   13107200 cpu:       0.0
 (Enter /programs/64bit/g09/g09-gfortran/bin/l103.exe)

 GradGradGradGradGradGradGradGradGradGradGradGradGradGradGradGradGradGrad
 Berny optimization.
 Initialization pass.
                       ----------------------------
                       !    Initial Parameters    !
                       ! (Angstroms and Degrees)  !
 ----------------------                            ----------------------
 !      Name          Value   Derivative information (Atomic Units)     !
 ------------------------------------------------------------------------
 !       d1          3.5485   Frozen                                    !
 !       a1        109.0001   Frozen                                    !
 !       t1        120.0      Frozen                                    !
 !       d2          1.0918   Frozen                                    !
 !       a2        109.9999   Frozen                                    !
 !       t2       -120.0      Frozen                                    !
 !       d3          1.0921   Frozen                                    !
 !       d4          1.0921   Frozen                                    !
 !       a3        109.0      Frozen                                    !
 !       d5          1.0914   Frozen                                    !
 !       a4        109.0001   Frozen                                    !
 !       t3        180.0      Frozen                                    !
 !       d6          1.0918   Frozen                                    !
 !       a5        109.0      Frozen                                    !
 !       t4        120.0      Frozen                                    !
 !       d7          1.0919   Frozen                                    !
 !       a6        109.0      Frozen                                    !
 !       t5       -120.0      Frozen                                    !
 ------------------------------------------------------------------------
 Trust Radius=3.00D-01 FncErr=1.00D-07 GrdErr=1.00D-07
 Number of steps in this run=   2 maximum allowed number of steps=   2.
 GradGradGradGradGradGradGradGradGradGradGradGradGradGradGradGradGradGrad

 Leave Link  103 at Thu May 27 13:49:59 2021, MaxMem=   13107200 cpu:       0.0
 (Enter /programs/64bit/g09/g09-gfortran/bin/l202.exe)
                          Input orientation:                          
 ---------------------------------------------------------------------
 Center     Atomic      Atomic             Coordinates (Angstroms)
 Number     Number       Type             X           Y           Z
 ---------------------------------------------------------------------
      1          6           0        0.000000    0.000000    0.000000
      2          6           0        0.000000    0.000000    3.548482
      3          1           0        1.032311    0.000000   -0.355455
      4          1           0       -0.513139   -0.888782   -0.373532
      5          1           0       -0.516283    0.894229   -0.355541
      6          1           0       -1.031953    0.000000    3.903814
      7          1           0        0.516141   -0.893982    3.903926
      8          1           0        0.516194    0.894073    3.903962
 ---------------------------------------------------------------------
                    Distance matrix (angstroms):
                    1          2          3          4          5
     1  C    0.000000
     2  C    3.548482   0.000000
     3  H    1.091794   4.038117   0.000000
     4  H    1.092141   4.054065   1.782884   0.000000
     5  H    1.092063   4.038266   1.788236   1.783104   0.000000
     6  H    4.037907   1.091416   4.733134   4.399408   4.382656
     7  H    4.038099   1.091763   4.382689   4.399556   4.733567
     8  H    4.038161   1.091874   4.382736   4.747110   4.382850
                    6          7          8
     6  H    0.000000
     7  H    1.787680   0.000000
     8  H    1.787772   1.788056   0.000000
 Symmetry turned off by external request.
 Stoichiometry    C2H6
 Framework group  C1[X(C2H6)]
 Deg. of freedom    18
 Full point group                 C1      NOp   1
 Rotational constants (GHZ):     78.5800092      4.7558679      4.7553189
 Leave Link  202 at Thu May 27 13:49:59 2021, MaxMem=   13107200 cpu:       0.0
 (Enter /programs/64bit/g09/g09-gfortran/bin/l301.exe)
 Standard basis: 6-31+G(d,p) (6D, 7F)
 Ernie: Thresh=  0.10000D-02 Tol=  0.10000D-05 Strict=F.
 Integral buffers will be    131072 words long.
 Raffenetti 2 integral format.
 Two-electron integral symmetry is turned off.
    68 basis functions,   106 primitive gaussians,    68 cartesian basis functions
     9 alpha electrons        9 beta electrons
       nuclear repulsion energy        30.3671477567 Hartrees.
 IExCor=  402 DFT=T Ex+Corr=B3LYP ExCW=0 ScaHFX=  0.200000
 ScaDFX=  0.800000  0.720000  1.000000  0.810000 ScalE2=  1.000000  1.000000
 IRadAn=      0 IRanWt=     -1 IRanGd=            0 ICorTp=0
 NAtoms=    8 NActive=    8 NUniq=    8 SFac= 7.50D-01 NAtFMM=   80 NAOKFM=F Big=F
 Leave Link  301 at Thu May 27 13:49:59 2021, MaxMem=   13107200 cpu:       0.0
 (Enter /programs/64bit/g09/g09-gfortran/bin/l302.exe)
 NPDir=0 NMtPBC=     1 NCelOv=     1 NCel=       1 NClECP=     1 NCelD=      1
         NCelK=      1 NCelE2=     1 NClLst=     1 CellRange=     0.0.
 One-electron integrals computed using PRISM.
 NBasis=    68 RedAO= T  NBF=    68
 NBsUse=    68 1.00D-06 NBFU=    68
 Precomputing XC quadrature grid using
 IXCGrd= 2 IRadAn=           0 IRanWt=          -1 IRanGd=           0 AccXCQ= 1.00D-10.
 NRdTot=     518 NPtTot=       65100 NUsed=       68843 NTot=       68875
 NSgBfM=    68    68    68    68    68 NAtAll=     8     8.
 Leave Link  302 at Thu May 27 13:49:59 2021, MaxMem=   13107200 cpu:       0.1
 (Enter /programs/64bit/g09/g09-gfortran/bin/l303.exe)
 DipDrv:  MaxL=1.
 Leave Link  303 at Thu May 27 13:49:59 2021, MaxMem=   13107200 cpu:       0.0
 (Enter /programs/64bit/g09/g09-gfortran/bin/l401.exe)
 Harris functional with IExCor=  402 diagonalized for initial guess.
 ExpMin= 4.38D-02 ExpMax= 3.05D+03 ExpMxC= 4.57D+02 IAcc=2 IRadAn=         0 AccDes= 0.00D+00
 HarFok:  IExCor=  402 AccDes= 0.00D+00 IRadAn=         0 IDoV= 1
 ScaDFX=  1.000000  1.000000  1.000000  1.000000
 FoFCou: FMM=F IPFlag=           0 FMFlag=      100000 FMFlg1=           0
         NFxFlg=           0 DoJE=T BraDBF=F KetDBF=T FulRan=T
         Omega=  0.000000  0.000000  1.000000  0.000000  0.000000 ICntrl=     500 IOpCl=  0
         NMat0=    1 NMatS0=    1 NMatT0=    0 NMatD0=    1 NMtDS0=    0 NMtDT0=    0
         I1Cent=           4 NGrid=           0.
 Symmetry not used in FoFCou.
 Harris En= -79.6858403953436    
 Leave Link  401 at Thu May 27 13:50:00 2021, MaxMem=   13107200 cpu:       1.0
 (Enter /programs/64bit/g09/g09-gfortran/bin/l502.exe)
 Closed shell SCF:
 Requested convergence on RMS density matrix=1.00D-08 within 128 cycles.
 Requested convergence on MAX density matrix=1.00D-06.
 Requested convergence on             energy=1.00D-06.
 No special actions if energy rises.
 Using DIIS extrapolation, IDIIS=  1040.
 Two-electron integral symmetry not used.
        68758 words used for storage of precomputed grid.
 Keep R1 ints in memory in canonical form, NReq=3743143.
 IEnd=      101608 IEndB=      101608 NGot=    13107200 MDV=    10273866
 LenX=    10273866 LenY=    10268801
 Symmetry not used in FoFDir.
 MinBra= 0 MaxBra= 2 Meth= 1.
 IRaf=       0 NMat=   1 IRICut=       1 DoRegI=T DoRafI=F ISym2E= 0 JSym2E=0.

 Cycle   1  Pass 1  IDiag  1:
 E= -79.5521704412739    
 DIIS: error= 3.19D-02 at cycle   1 NSaved=   1.
 NSaved= 1 IEnMin= 1 EnMin= -79.5521704412739     IErMin= 1 ErrMin= 3.19D-02
 ErrMax= 3.19D-02 EMaxC= 1.00D-01 BMatC= 6.90D-02 BMatP= 6.90D-02
 IDIUse=3 WtCom= 6.81D-01 WtEn= 3.19D-01
 Coeff-Com:  0.100D+01
 Coeff-En:   0.100D+01
 Coeff:      0.100D+01
 Gap=     0.080 Goal=   None    Shift=    0.000
 GapD=    0.080 DampG=0.500 DampE=0.500 DampFc=0.2500 IDamp=-1.
 Damping current iteration by 2.50D-01
 RMSDP=6.88D-03 MaxDP=1.08D-01              OVMax= 2.33D-01

 Cycle   2  Pass 1  IDiag  1:
 E= -79.5835963173603     Delta-E=       -0.031425876086 Rises=F Damp=T
 DIIS: error= 1.53D-02 at cycle   2 NSaved=   2.
 NSaved= 2 IEnMin= 2 EnMin= -79.5835963173603     IErMin= 2 ErrMin= 1.53D-02
 ErrMax= 1.53D-02 EMaxC= 1.00D-01 BMatC= 1.69D-02 BMatP= 6.90D-02
 IDIUse=3 WtCom= 8.47D-01 WtEn= 1.53D-01
 Coeff-Com: -0.851D+00 0.185D+01
 Coeff-En:   0.000D+00 0.100D+01
 Coeff:     -0.721D+00 0.172D+01
 Gap=     0.074 Goal=   None    Shift=    0.000
 RMSDP=2.83D-03 MaxDP=7.39D-02 DE=-3.14D-02 OVMax= 2.24D-01

 Cycle   3  Pass 1  IDiag  1:
 E= -79.6103382380591     Delta-E=       -0.026741920699 Rises=F Damp=F
 DIIS: error= 2.94D-02 at cycle   3 NSaved=   3.
 NSaved= 3 IEnMin= 3 EnMin= -79.6103382380591     IErMin= 2 ErrMin= 1.53D-02
 ErrMax= 2.94D-02 EMaxC= 1.00D-01 BMatC= 1.64D-02 BMatP= 1.69D-02
 IDIUse=3 WtCom= 7.06D-01 WtEn= 2.94D-01
 Coeff-Com: -0.652D+00 0.142D+01 0.229D+00
 Coeff-En:   0.000D+00 0.152D+00 0.848D+00
 Coeff:     -0.460D+00 0.105D+01 0.411D+00
 Gap=     0.055 Goal=   None    Shift=    0.000
 RMSDP=5.57D-03 MaxDP=1.41D-01 DE=-2.67D-02 OVMax= 4.35D-01

 Cycle   4  Pass 1  IDiag  1:
 E= -79.5144561769694     Delta-E=        0.095882061090 Rises=F Damp=F
 DIIS: error= 5.42D-02 at cycle   4 NSaved=   4.
 NSaved= 4 IEnMin= 3 EnMin= -79.6103382380591     IErMin= 2 ErrMin= 1.53D-02
 ErrMax= 5.42D-02 EMaxC= 1.00D-01 BMatC= 6.84D-02 BMatP= 1.64D-02
 IDIUse=2 WtCom= 0.00D+00 WtEn= 1.00D+00
 Coeff-En:   0.000D+00 0.000D+00 0.704D+00 0.296D+00
 Coeff:      0.000D+00 0.000D+00 0.704D+00 0.296D+00
 Gap=     0.064 Goal=   None    Shift=    0.000
 RMSDP=2.85D-03 MaxDP=7.06D-02 DE= 9.59D-02 OVMax= 2.22D-01

 Cycle   5  Pass 1  IDiag  1:
 E= -79.6281808920545     Delta-E=       -0.113724715085 Rises=F Damp=F
 DIIS: error= 1.82D-02 at cycle   5 NSaved=   5.
 NSaved= 5 IEnMin= 5 EnMin= -79.6281808920545     IErMin= 2 ErrMin= 1.53D-02
 ErrMax= 1.82D-02 EMaxC= 1.00D-01 BMatC= 5.94D-03 BMatP= 1.64D-02
 IDIUse=3 WtCom= 8.18D-01 WtEn= 1.82D-01
 Coeff-Com: -0.362D-02 0.462D-02 0.315D+00-0.691D-01 0.753D+00
 Coeff-En:   0.000D+00 0.000D+00 0.355D+00 0.000D+00 0.645D+00
 Coeff:     -0.296D-02 0.378D-02 0.322D+00-0.565D-01 0.733D+00
 Gap=     0.071 Goal=   None    Shift=    0.000
 RMSDP=1.05D-03 MaxDP=2.65D-02 DE=-1.14D-01 OVMax= 8.23D-02

 Cycle   6  Pass 1  IDiag  1:
 E= -79.6379976958521     Delta-E=       -0.009816803798 Rises=F Damp=F
 DIIS: error= 5.22D-04 at cycle   6 NSaved=   6.
 NSaved= 6 IEnMin= 6 EnMin= -79.6379976958521     IErMin= 6 ErrMin= 5.22D-04
 ErrMax= 5.22D-04 EMaxC= 1.00D-01 BMatC= 7.30D-06 BMatP= 5.94D-03
 IDIUse=3 WtCom= 9.95D-01 WtEn= 5.22D-03
 Coeff-Com: -0.296D-02 0.397D-02 0.206D-01-0.551D-02 0.192D-01 0.965D+00
 Coeff-En:   0.000D+00 0.000D+00 0.000D+00 0.000D+00 0.000D+00 0.100D+01
 Coeff:     -0.295D-02 0.395D-02 0.205D-01-0.548D-02 0.191D-01 0.965D+00
 Gap=     0.073 Goal=   None    Shift=    0.000
 RMSDP=1.72D-05 MaxDP=2.52D-04 DE=-9.82D-03 OVMax= 9.79D-04

 Cycle   7  Pass 1  IDiag  1:
 E= -79.6379942876203     Delta-E=        0.000003408232 Rises=F Damp=F
 DIIS: error= 6.82D-04 at cycle   7 NSaved=   7.
 NSaved= 7 IEnMin= 6 EnMin= -79.6379976958521     IErMin= 6 ErrMin= 5.22D-04
 ErrMax= 6.82D-04 EMaxC= 1.00D-01 BMatC= 7.56D-06 BMatP= 7.30D-06
 IDIUse=3 WtCom= 9.95D-01 WtEn= 5.22D-03
 Rare condition: small coef for last iteration:  0.000D+00
 Coeff-Com:  0.109D-02-0.698D-03 0.617D-02-0.577D-03-0.237D-01 0.234D+00
 Coeff-Com:  0.783D+00
 Coeff-En:   0.000D+00 0.000D+00 0.000D+00 0.000D+00 0.000D+00 0.000D+00
 Coeff-En:   0.100D+01
 Coeff:      0.109D-02-0.698D-03 0.617D-02-0.577D-03-0.237D-01 0.234D+00
 Coeff:      0.783D+00
 Gap=     0.073 Goal=   None    Shift=    0.000
 RMSDP=3.56D-05 MaxDP=8.35D-04 DE= 3.41D-06 OVMax= 2.82D-03

 Cycle   8  Pass 1  IDiag  1:
 E= -79.6380071680365     Delta-E=       -0.000012880416 Rises=F Damp=F
 DIIS: error= 7.34D-05 at cycle   8 NSaved=   8.
 NSaved= 8 IEnMin= 8 EnMin= -79.6380071680365     IErMin= 8 ErrMin= 7.34D-05
 ErrMax= 7.34D-05 EMaxC= 1.00D-01 BMatC= 9.71D-08 BMatP= 7.30D-06
 IDIUse=1 WtCom= 1.00D+00 WtEn= 0.00D+00
 Coeff-Com:  0.906D-03-0.120D-02 0.146D-02 0.183D-03-0.715D-02 0.371D-01
 Coeff-Com:  0.126D+00 0.843D+00
 Coeff:      0.906D-03-0.120D-02 0.146D-02 0.183D-03-0.715D-02 0.371D-01
 Coeff:      0.126D+00 0.843D+00
 Gap=     0.073 Goal=   None    Shift=    0.000
 RMSDP=3.93D-06 MaxDP=8.95D-05 DE=-1.29D-05 OVMax= 2.96D-04

 Cycle   9  Pass 1  IDiag  1:
 E= -79.6380073243594     Delta-E=       -0.000000156323 Rises=F Damp=F
 DIIS: error= 8.79D-06 at cycle   9 NSaved=   9.
 NSaved= 9 IEnMin= 9 EnMin= -79.6380073243594     IErMin= 9 ErrMin= 8.79D-06
 ErrMax= 8.79D-06 EMaxC= 1.00D-01 BMatC= 1.26D-09 BMatP= 9.71D-08
 IDIUse=1 WtCom= 1.00D+00 WtEn= 0.00D+00
 Coeff-Com:  0.170D-04-0.148D-04-0.347D-04-0.457D-05 0.795D-04-0.108D-02
 Coeff-Com: -0.171D-01 0.174D-01 0.100D+01
 Coeff:      0.170D-04-0.148D-04-0.347D-04-0.457D-05 0.795D-04-0.108D-02
 Coeff:     -0.171D-01 0.174D-01 0.100D+01
 Gap=     0.073 Goal=   None    Shift=    0.000
 RMSDP=5.21D-07 MaxDP=1.25D-05 DE=-1.56D-07 OVMax= 4.13D-05

 Cycle  10  Pass 1  IDiag  1:
 E= -79.6380073265280     Delta-E=       -0.000000002169 Rises=F Damp=F
 DIIS: error= 1.52D-07 at cycle  10 NSaved=  10.
 NSaved=10 IEnMin=10 EnMin= -79.6380073265280     IErMin=10 ErrMin= 1.52D-07
 ErrMax= 1.52D-07 EMaxC= 1.00D-01 BMatC= 4.77D-13 BMatP= 1.26D-09
 IDIUse=1 WtCom= 1.00D+00 WtEn= 0.00D+00
 Coeff-Com:  0.295D-05-0.274D-05-0.735D-05-0.107D-05 0.136D-04-0.704D-04
 Coeff-Com: -0.207D-02 0.966D-03 0.126D+00 0.875D+00
 Coeff:      0.295D-05-0.274D-05-0.735D-05-0.107D-05 0.136D-04-0.704D-04
 Coeff:     -0.207D-02 0.966D-03 0.126D+00 0.875D+00
 Gap=     0.073 Goal=   None    Shift=    0.000
 RMSDP=9.55D-09 MaxDP=2.14D-07 DE=-2.17D-09 OVMax= 7.16D-07

 SCF Done:  E(RB3LYP) =  -79.6380073265     A.U. after   10 cycles
             Convg  =    0.9545D-08             -V/T =  2.0131
 KE= 7.860684997374D+01 PE=-2.437707859002D+02 EE= 5.515878084329D+01
 Leave Link  502 at Thu May 27 13:50:12 2021, MaxMem=   13107200 cpu:       8.9
 (Enter /programs/64bit/g09/g09-gfortran/bin/l601.exe)
 Copying SCF densities to generalized density rwf, IOpCl= 0 IROHF=0.

 **********************************************************************

            Population analysis using the SCF density.

 **********************************************************************

 Alpha  occ. eigenvalues --  -10.22574 -10.22480  -0.68515  -0.68242  -0.41054
 Alpha  occ. eigenvalues --   -0.41031  -0.40869  -0.40780  -0.21801
 Alpha virt. eigenvalues --   -0.14545   0.01380   0.03145   0.05554   0.05560
 Alpha virt. eigenvalues --    0.07984   0.07992   0.10893   0.12445   0.17784
 Alpha virt. eigenvalues --    0.17852   0.19804   0.19821   0.24783   0.31214
 Alpha virt. eigenvalues --    0.62689   0.62702   0.64488   0.64772   0.64777
 Alpha virt. eigenvalues --    0.73451   0.88752   0.90213   0.90338   0.92257
 Alpha virt. eigenvalues --    0.92289   0.93384   1.01785   1.08033   1.40288
 Alpha virt. eigenvalues --    1.40360   1.40375   1.40458   1.76111   1.77681
 Alpha virt. eigenvalues --    2.02541   2.02728   2.05494   2.05574   2.06636
 Alpha virt. eigenvalues --    2.06817   2.30574   2.30843   2.31400   2.31462
 Alpha virt. eigenvalues --    2.58026   2.61107   2.80189   2.80346   2.80797
 Alpha virt. eigenvalues --    2.80928   3.18228   3.20558   3.39163   3.39225
 Alpha virt. eigenvalues --    3.40479   3.40566   4.24782   4.30232
          Condensed to atoms (all electrons):
              1          2          3          4          5          6
     1  C    5.224997   0.125405   0.379617   0.379076   0.379606  -0.003610
     2  C    0.125405   5.221215  -0.003676  -0.003481  -0.003677   0.379724
     3  H    0.379617  -0.003676   0.532309  -0.033713  -0.033241   0.000006
     4  H    0.379076  -0.003481  -0.033713   0.533668  -0.033703   0.000010
     5  H    0.379606  -0.003677  -0.033241  -0.033703   0.532346   0.000011
     6  H   -0.003610   0.379724   0.000006   0.000010   0.000011   0.531204
     7  H   -0.003611   0.379709   0.000011   0.000010   0.000006  -0.033240
     8  H   -0.003607   0.379663   0.000011   0.000006   0.000011  -0.033264
              7          8
     1  C   -0.003611  -0.003607
     2  C    0.379709   0.379663
     3  H    0.000011   0.000011
     4  H    0.000010   0.000006
     5  H    0.000006   0.000011
     6  H   -0.033240  -0.033264
     7  H    0.531251  -0.033251
     8  H   -0.033251   0.531398
 Mulliken atomic charges:
              1
     1  C   -0.477873
     2  C   -0.474882
     3  H    0.158676
     4  H    0.158127
     5  H    0.158641
     6  H    0.159160
     7  H    0.159117
     8  H    0.159034
 Sum of Mulliken atomic charges =  -0.00000
 Mulliken charges with hydrogens summed into heavy atoms:
              1
     1  C   -0.002429
     2  C    0.002429
 Sum of Mulliken charges with hydrogens summed into heavy atoms =  -0.00000
 Electronic spatial extent (au):  <R**2>=            488.4425
 Charge=              0.0000 electrons
 Dipole moment (field-independent basis, Debye):
    X=              0.0046    Y=              0.0081    Z=              0.0273  Tot=              0.0288
 Quadrupole moment (field-independent basis, Debye-Ang):
   XX=            -15.5870   YY=            -15.5989   ZZ=            -10.7577
   XY=             -0.0107   XZ=              0.0104   YZ=              0.0188
 Traceless Quadrupole moment (field-independent basis, Debye-Ang):
   XX=             -1.6058   YY=             -1.6177   ZZ=              3.2235
   XY=             -0.0107   XZ=              0.0104   YZ=              0.0188
 Octapole moment (field-independent basis, Debye-Ang**2):
  XXX=             -0.0024  YYY=              0.0168  ZZZ=            -57.4581  XYY=              0.0148
  XXY=              0.0056  XXZ=            -27.6028  XZZ=             -0.0056  YZZ=             -0.0068
  YYZ=            -27.6058  XYZ=             -0.0034
 Hexadecapole moment (field-independent basis, Debye-Ang**3):
 XXXX=            -33.2959 YYYY=            -33.3154 ZZZZ=           -557.1298 XXXY=             -0.0013
 XXXZ=             -2.9837 YYYX=             -0.0094 YYYZ=              0.0066 ZZZX=             -0.0067
 ZZZY=              0.0111 XXYY=            -11.1045 XXZZ=           -108.3203 YYZZ=           -108.3077
 XXYZ=              0.0022 YYXZ=              2.9806 ZZXY=              0.0075
 N-N= 3.036714775666D+01 E-N=-2.437707876187D+02  KE= 7.860684997374D+01
 No NMR shielding tensors so no spin-rotation constants.
 Leave Link  601 at Thu May 27 13:50:12 2021, MaxMem=   13107200 cpu:       0.1
 (Enter /programs/64bit/g09/g09-gfortran/bin/l701.exe)
 Compute integral first derivatives.
 ... and contract with generalized density number  0.
 Leave Link  701 at Thu May 27 13:50:12 2021, MaxMem=   13107200 cpu:       0.1
 (Enter /programs/64bit/g09/g09-gfortran/bin/l702.exe)
 L702 exits ... SP integral derivatives will be done elsewhere.
 Leave Link  702 at Thu May 27 13:50:12 2021, MaxMem=   13107200 cpu:       0.0
 (Enter /programs/64bit/g09/g09-gfortran/bin/l703.exe)
 Compute integral first derivatives, UseDBF=F ICtDFT=           0.
 Integral derivatives from FoFDir, PRISM(SPDF).
 Calling FoFJK, ICntrl=      2127 FMM=F ISym2X=0 I1Cent= 0 IOpClX= 0 NMat=1 NMatS=1 NMatT=0.
 FoFCou: FMM=F IPFlag=           0 FMFlag=      100000 FMFlg1=         800
         NFxFlg=           0 DoJE=F BraDBF=F KetDBF=F FulRan=T
         Omega=  0.000000  0.000000  1.000000  0.000000  0.000000 ICntrl=    2127 IOpCl=  0
         NMat0=    1 NMatS0=    1 NMatT0=    0 NMatD0=    1 NMtDS0=    0 NMtDT0=    0
         I1Cent=           0 NGrid=           0.
 Symmetry not used in FoFCou.
 Leave Link  703 at Thu May 27 13:50:14 2021, MaxMem=   13107200 cpu:       1.7
 (Enter /programs/64bit/g09/g09-gfortran/bin/l716.exe)
 Dipole        = 1.82345094D-03 3.18378597D-03 1.07346047D-02
 -------------------------------------------------------------------
 Center     Atomic                   Forces (Hartrees/Bohr)
 Number     Number              X              Y              Z
 -------------------------------------------------------------------
      1        6          -0.000142769    0.000031809   -0.024428191
      2        6           0.000204766   -0.000006826    0.023360956
      3        1           0.004638474    0.000320558    0.015918229
      4        1          -0.002505145   -0.004325990    0.016180590
      5        1          -0.001962793    0.004028076    0.015973849
      6        1          -0.004624319   -0.000002537   -0.015605554
      7        1           0.002207665   -0.003812935   -0.015675814
      8        1           0.002184120    0.003767843   -0.015724065
 -------------------------------------------------------------------
 Cartesian Forces:  Max     0.024428191 RMS     0.010754573
 -----------------------------------------------------------------------------------------------
                       Internal Coordinate Forces (Hartree/Bohr or radian)
  Cent   Atom   N1       Length/X         N2         Alpha/Y        N3         Beta/Z          J
 -----------------------------------------------------------------------------------------------
      1  C 
      2  C        1  -0.023644(     1)
      3  H        1  -0.000797(     2)      2  -0.034169(     8)
      4  H        1  -0.000837(     3)      2  -0.034909(     9)      3   0.000013(    14)     0
      5  H        1  -0.000974(     4)      2  -0.034172(    10)      3   0.000613(    15)     0
      6  H        2  -0.000708(     5)      1  -0.033538(    11)      3   0.000001(    16)     0
      7  H        2  -0.000938(     6)      1  -0.033539(    12)      6   0.000011(    17)     0
      8  H        2  -0.001001(     7)      1  -0.033602(    13)      6  -0.000015(    18)     0
 -----------------------------------------------------------------------------------------------
 Internal  Forces:  Max     0.034909020 RMS     0.020407958
 Force constants in Cartesian coordinates: 
                1             2             3             4             5 
      1  0.597080D+00
      2 -0.119897D-02  0.595458D+00
      3  0.185452D-02  0.336786D-02  0.326004D+00
      4 -0.231599D-01 -0.715767D-04 -0.345591D-04  0.600041D+00
      5 -0.715757D-04 -0.232405D-01 -0.551839D-04 -0.440100D-04  0.599685D+00
      6 -0.403704D-05  0.000000D+00 -0.976534D-02 -0.134406D-03 -0.320863D-04
      7 -0.308980D+00 -0.831744D-04  0.832238D-01  0.377402D-02  0.000000D+00
      8 -0.253148D-03 -0.785039D-01 -0.176280D-03 -0.275133D-05  0.324418D-03
      9  0.107692D+00 -0.241555D-03 -0.104363D+00  0.109605D-01 -0.152639D-05
     10 -0.135200D+00 -0.981640D-01 -0.433255D-01  0.124640D-02  0.156893D-02
     11 -0.981712D-01 -0.248561D+00 -0.750497D-01  0.156909D-02  0.305832D-02
     12 -0.555366D-01 -0.961947D-01 -0.107572D+00 -0.544573D-02 -0.943227D-02
     13 -0.135881D+00  0.995179D-01 -0.417182D-01  0.118809D-02 -0.149503D-02
     14  0.996950D-01 -0.251293D+00  0.719133D-01 -0.149297D-02  0.290962D-02
     15 -0.540103D-01  0.930684D-01 -0.104303D+00 -0.548022D-02  0.948898D-02
     16  0.377507D-02  0.000000D+00  0.000000D+00 -0.309470D+00  0.000000D+00
     17 -0.620053D-05  0.322796D-03  0.000000D+00  0.000000D+00 -0.794506D-01
     18  0.109635D-01  0.000000D+00  0.000000D+00  0.107529D+00  0.000000D+00
     19  0.118829D-02 -0.149885D-02  0.000000D+00 -0.136832D+00  0.994569D-01
     20 -0.149278D-02  0.290849D-02  0.000000D+00  0.994662D-01 -0.251689D+00
     21 -0.548002D-02  0.949166D-02  0.000000D+00 -0.537062D-01  0.930264D-01
     22  0.117744D-02  0.149869D-02  0.000000D+00 -0.136789D+00 -0.994149D-01
     23  0.149882D-02  0.290819D-02  0.000000D+00 -0.994241D-01 -0.251598D+00
     24 -0.547946D-02 -0.949069D-02  0.000000D+00 -0.536886D-01 -0.929948D-01
                6             7             8             9            10 
      6  0.321135D+00
      7  0.000000D+00  0.315381D+00
      8  0.000000D+00  0.964249D-04  0.588363D-01
      9  0.000000D+00 -0.891016D-01  0.280037D-03  0.872929D-01
     10  0.000000D+00 -0.516595D-02 -0.273491D-01 -0.150029D-01  0.122214D+00
     11  0.000000D+00  0.172869D-02  0.947570D-02  0.502047D-02  0.109474D+00
     12  0.000000D+00  0.298347D-02  0.150243D-01  0.866457D-02  0.464821D-01
     13  0.000000D+00 -0.500943D-02  0.275086D-01 -0.145484D-01  0.169051D-01
     14  0.000000D+00 -0.174142D-02  0.986726D-02 -0.505742D-02  0.144702D-01
     15  0.000000D+00  0.289434D-02 -0.151280D-01  0.840573D-02  0.118464D-01
     16  0.835501D-01  0.000000D+00  0.000000D+00  0.000000D+00  0.000000D+00
     17  0.156478D-05  0.000000D+00  0.604588D-03  0.000000D+00  0.526667D-03
     18 -0.103849D+00  0.000000D+00  0.000000D+00  0.000000D+00  0.000000D+00
     19 -0.417140D-01  0.000000D+00 -0.523422D-03  0.000000D+00 -0.455961D-03
     20  0.722637D-01  0.000000D+00 -0.302198D-03  0.000000D+00 -0.263250D-03
     21 -0.103772D+00  0.000000D+00  0.000000D+00  0.000000D+00  0.000000D+00
     22 -0.416977D-01  0.000000D+00  0.523368D-03  0.000000D+00  0.455915D-03
     23 -0.722322D-01  0.000000D+00 -0.302167D-03  0.000000D+00 -0.263223D-03
     24 -0.103748D+00  0.000000D+00  0.000000D+00  0.000000D+00  0.000000D+00
               11            12            13            14            15 
     11  0.248623D+00
     12  0.805094D-01  0.902454D-01
     13 -0.146004D-01  0.115168D-01  0.122798D+00
     14 -0.125964D-01  0.100933D-01 -0.110931D+00  0.251112D+00
     15 -0.104801D-01  0.866241D-02  0.447498D-01 -0.769493D-01  0.872351D-01
     16  0.000000D+00  0.000000D+00  0.000000D+00  0.000000D+00  0.000000D+00
     17 -0.304071D-03  0.000000D+00 -0.523459D-03 -0.302219D-03  0.000000D+00
     18  0.000000D+00  0.000000D+00  0.000000D+00  0.000000D+00  0.000000D+00
     19  0.263250D-03  0.000000D+00  0.453185D-03  0.261646D-03  0.000000D+00
     20  0.151987D-03  0.000000D+00  0.261647D-03  0.151062D-03  0.000000D+00
     21  0.000000D+00  0.000000D+00  0.000000D+00  0.000000D+00  0.000000D+00
     22 -0.263223D-03  0.000000D+00 -0.453139D-03 -0.261619D-03  0.000000D+00
     23  0.151972D-03  0.000000D+00  0.261620D-03  0.151046D-03  0.000000D+00
     24  0.000000D+00  0.000000D+00  0.000000D+00  0.000000D+00  0.000000D+00
               16            17            18            19            20 
     16  0.315722D+00
     17  0.000000D+00  0.593819D-01
     18 -0.893706D-01  0.000000D+00  0.869457D-01
     19 -0.501408D-02  0.275251D-01 -0.145619D-01  0.123349D+00
     20 -0.173772D-02  0.987430D-02 -0.504668D-02 -0.110859D+00  0.251358D+00
     21  0.291039D-02 -0.151343D-01  0.845233D-02  0.446293D-01 -0.773004D-01
     22 -0.501357D-02 -0.275223D-01 -0.145604D-01  0.173112D-01  0.146253D-01
     23  0.173754D-02  0.987330D-02  0.504616D-02 -0.146253D-01 -0.124530D-01
     24  0.291009D-02  0.151328D-01  0.845147D-02  0.116466D-01  0.100833D-01
               21            22            23            24 
     21  0.868713D-01
     22  0.116466D-01  0.123311D+00
     23 -0.100833D-01  0.110815D+00  0.251269D+00
     24  0.844875D-02  0.446115D-01  0.772694D-01  0.868475D-01
 Force constants in internal coordinates: 
                1             2             3             4             5 
      1  0.976534D-02
      2  0.000000D+00  0.346061D+00
      3  0.000000D+00  0.000000D+00  0.345664D+00
      4  0.000000D+00  0.000000D+00  0.000000D+00  0.345753D+00
      5  0.000000D+00  0.000000D+00  0.000000D+00  0.000000D+00  0.346495D+00
      6  0.000000D+00  0.000000D+00  0.000000D+00  0.000000D+00  0.000000D+00
      7  0.000000D+00  0.000000D+00  0.000000D+00  0.000000D+00  0.000000D+00
      8  0.000000D+00  0.000000D+00  0.000000D+00  0.000000D+00  0.000000D+00
      9  0.000000D+00  0.000000D+00  0.000000D+00  0.000000D+00  0.000000D+00
     10  0.000000D+00  0.000000D+00  0.000000D+00  0.000000D+00  0.000000D+00
     11  0.000000D+00  0.000000D+00  0.000000D+00  0.000000D+00  0.000000D+00
     12  0.000000D+00  0.000000D+00  0.000000D+00  0.000000D+00  0.000000D+00
     13  0.000000D+00  0.000000D+00  0.000000D+00  0.000000D+00  0.000000D+00
     14  0.000000D+00  0.000000D+00  0.000000D+00  0.000000D+00  0.000000D+00
     15  0.000000D+00  0.000000D+00  0.000000D+00  0.000000D+00  0.000000D+00
     16  0.000000D+00  0.000000D+00  0.000000D+00  0.000000D+00  0.000000D+00
     17  0.000000D+00  0.000000D+00  0.000000D+00  0.000000D+00  0.000000D+00
     18  0.000000D+00  0.000000D+00  0.000000D+00  0.000000D+00  0.000000D+00
                6             7             8             9            10 
      6  0.346097D+00
      7  0.000000D+00  0.345969D+00
      8  0.000000D+00  0.000000D+00  0.240986D+00
      9  0.000000D+00  0.000000D+00  0.415249D-01  0.240274D+00
     10  0.000000D+00  0.000000D+00  0.400333D-01  0.415247D-01  0.240986D+00
     11  0.000000D+00  0.000000D+00  0.000000D+00  0.000000D+00  0.000000D+00
     12  0.000000D+00  0.000000D+00  0.000000D+00  0.000000D+00  0.000000D+00
     13  0.000000D+00  0.000000D+00  0.000000D+00  0.000000D+00  0.000000D+00
     14  0.000000D+00  0.000000D+00 -0.656075D-01  0.000000D+00  0.656074D-01
     15  0.000000D+00  0.000000D+00  0.644121D-01 -0.643713D-01 -0.119185D-02
     16  0.000000D+00  0.000000D+00  0.000000D+00  0.000000D+00  0.000000D+00
     17  0.000000D+00  0.000000D+00  0.000000D+00  0.000000D+00  0.000000D+00
     18  0.000000D+00  0.000000D+00  0.000000D+00  0.000000D+00  0.000000D+00
               11            12            13            14            15 
     11  0.238948D+00
     12  0.402303D-01  0.238948D+00
     13  0.402303D-01  0.402301D-01  0.238948D+00
     14  0.000000D+00  0.000000D+00  0.000000D+00  0.221946D+00
     15  0.000000D+00  0.000000D+00  0.000000D+00 -0.107533D+00  0.223905D+00
     16  0.000000D+00  0.000000D+00  0.000000D+00  0.690000D-02  0.690000D-02
     17 -0.643989D-01  0.000000D+00  0.643986D-01  0.230000D-02  0.230000D-02
     18  0.643988D-01 -0.643986D-01  0.000000D+00  0.230000D-02  0.230000D-02
               16            17            18 
     16  0.207000D-01
     17  0.690002D-02  0.225825D+00
     18  0.690004D-02 -0.109463D+00  0.225825D+00
 Leave Link  716 at Thu May 27 13:50:14 2021, MaxMem=   13107200 cpu:       0.0
 (Enter /programs/64bit/g09/g09-gfortran/bin/l103.exe)

 GradGradGradGradGradGradGradGradGradGradGradGradGradGradGradGradGradGrad
 Berny optimization.
 Search for a local minimum.
 Step number   1 out of a maximum of    2
 All quantities printed in internal units (Hartrees-Bohrs-Radians)
 Second derivative matrix not updated -- first step.
 The second derivative matrix:
                          d1        a1        t1        d2        a2
           d1           0.00977
           a1           0.00000   0.24099
           t1           0.00000  -0.06561   0.22195
           d2           0.00000  -0.00000  -0.00000   0.34606
           a2          -0.00000   0.04152  -0.00000   0.00000   0.24027
           t2           0.00000   0.06441  -0.10753   0.00000  -0.06437
           d3           0.00000   0.00000   0.00000  -0.00000   0.00000
           d4           0.00000   0.00000   0.00000   0.00000   0.00000
           a3          -0.00000   0.04003   0.06561   0.00000   0.04152
           d5           0.00000   0.00000   0.00000   0.00000  -0.00000
           a4           0.00000   0.00000  -0.00000   0.00000   0.00000
           t3           0.00000   0.00000   0.00690   0.00000   0.00000
           d6           0.00000   0.00000   0.00000   0.00000   0.00000
           a5           0.00000   0.00000  -0.00000   0.00000  -0.00000
           t4          -0.00000   0.00000   0.00230   0.00000   0.00000
           d7           0.00000   0.00000  -0.00000   0.00000  -0.00000
           a6           0.00000   0.00000   0.00000   0.00000   0.00000
           t5           0.00000   0.00000   0.00230   0.00000   0.00000
                          t2        d3        d4        a3        d5
           t2           0.22391
           d3          -0.00000   0.34566
           d4           0.00000  -0.00000   0.34575
           a3          -0.00119   0.00000   0.00000   0.24099
           d5           0.00000   0.00000  -0.00000   0.00000   0.34650
           a4          -0.00000  -0.00000   0.00000  -0.00000   0.00000
           t3           0.00690  -0.00000  -0.00000  -0.00000   0.00000
           d6          -0.00000  -0.00000   0.00000  -0.00000   0.00000
           a5          -0.00000  -0.00000   0.00000  -0.00000   0.00000
           t4           0.00230  -0.00000  -0.00000  -0.00000  -0.00000
           d7          -0.00000   0.00000  -0.00000   0.00000   0.00000
           a6           0.00000  -0.00000   0.00000  -0.00000   0.00000
           t5           0.00230  -0.00000   0.00000  -0.00000   0.00000
                          a4        t3        d6        a5        t4
           a4           0.23895
           t3          -0.00000   0.02070
           d6           0.00000  -0.00000   0.34610
           a5           0.04023   0.00000  -0.00000   0.23895
           t4          -0.06440   0.00690   0.00000  -0.00000   0.22583
           d7          -0.00000   0.00000   0.00000  -0.00000  -0.00000
           a6           0.04023  -0.00000   0.00000   0.04023   0.06440
           t5           0.06440   0.00690   0.00000  -0.06440  -0.10946
                          d7        a6        t5
           d7           0.34597
           a6          -0.00000   0.23895
           t5           0.00000   0.00000   0.22583
     Eigenvalues --- 1000.000001000.000001000.000001000.000001000.00000
     Eigenvalues --- 1000.000001000.000001000.000001000.000001000.00000
     Eigenvalues --- 1000.000001000.000001000.000001000.000001000.00000
     Eigenvalues --- 1000.000001000.000001000.00000
 Angle between quadratic step and forces=  90.00 degrees.
 Linear search not attempted -- first point.
 Variable       Old X    -DE/DX   Delta X   Delta X   Delta X     New X
                                 (Linear)    (Quad)   (Total)
    d1        6.70566  -0.02364   0.00000   0.00000   0.00000   6.70566
    a1        1.90241  -0.03417   0.00000   0.00000   0.00000   1.90241
    t1        2.09440   0.00001   0.00000   0.00000   0.00000   2.09440
    d2        2.06319  -0.00080   0.00000   0.00000   0.00000   2.06319
    a2        1.91986  -0.03491   0.00000   0.00000   0.00000   1.91986
    t2       -2.09439   0.00061   0.00000   0.00000   0.00000  -2.09439
    d3        2.06385  -0.00084   0.00000   0.00000   0.00000   2.06385
    d4        2.06370  -0.00097   0.00000   0.00000   0.00000   2.06370
    a3        1.90241  -0.03417   0.00000   0.00000   0.00000   1.90241
    d5        2.06248  -0.00071   0.00000   0.00000   0.00000   2.06248
    a4        1.90241  -0.03354   0.00000   0.00000   0.00000   1.90241
    t3        3.14159   0.00000   0.00000   0.00000   0.00000   3.14159
    d6        2.06313  -0.00094   0.00000   0.00000   0.00000   2.06313
    a5        1.90241  -0.03354   0.00000   0.00000   0.00000   1.90241
    t4        2.09440   0.00001   0.00000   0.00000   0.00000   2.09440
    d7        2.06334  -0.00100   0.00000   0.00000   0.00000   2.06334
    a6        1.90241  -0.03360   0.00000   0.00000   0.00000   1.90241
    t5       -2.09440  -0.00001   0.00000   0.00000   0.00000  -2.09440
         Item               Value     Threshold  Converged?
 Maximum Force            0.000000     0.000450     YES
 RMS     Force            0.000000     0.000300     YES
 Maximum Displacement     0.000000     0.001800     YES
 RMS     Displacement     0.000000     0.001200     YES
 Predicted change in Energy=-0.000000D+00
 Optimization completed.
    -- Stationary point found.
                       ----------------------------
                       !   Optimized Parameters   !
                       ! (Angstroms and Degrees)  !
 ----------------------                            ----------------------
 !      Name          Value   Derivative information (Atomic Units)     !
 ------------------------------------------------------------------------
 !       d1          3.5485   -DE/DX =   -0.0236                        !
 !       a1        109.0001   -DE/DX =   -0.0342                        !
 !       t1        120.0      -DE/DX =    0.0                           !
 !       d2          1.0918   -DE/DX =   -0.0008                        !
 !       a2        109.9999   -DE/DX =   -0.0349                        !
 !       t2       -120.0      -DE/DX =    0.0006                        !
 !       d3          1.0921   -DE/DX =   -0.0008                        !
 !       d4          1.0921   -DE/DX =   -0.001                         !
 !       a3        109.0      -DE/DX =   -0.0342                        !
 !       d5          1.0914   -DE/DX =   -0.0007                        !
 !       a4        109.0001   -DE/DX =   -0.0335                        !
 !       t3        180.0      -DE/DX =    0.0                           !
 !       d6          1.0918   -DE/DX =   -0.0009                        !
 !       a5        109.0      -DE/DX =   -0.0335                        !
 !       t4        120.0      -DE/DX =    0.0                           !
 !       d7          1.0919   -DE/DX =   -0.001                         !
 !       a6        109.0      -DE/DX =   -0.0336                        !
 !       t5       -120.0      -DE/DX =    0.0                           !
 ------------------------------------------------------------------------
 GradGradGradGradGradGradGradGradGradGradGradGradGradGradGradGradGradGrad

 Leave Link  103 at Thu May 27 13:50:14 2021, MaxMem=   13107200 cpu:       0.0
 (Enter /programs/64bit/g09/g09-gfortran/bin/l9999.exe)
 1\1\GINC-MOLMOD\Force\RB3LYP\6-31+G(d,p)\C2H6\OSPITE\27-May-2021\1\\#p
  b3lyp/6-31+g(d,p) force nosym\\c2h6 molecule\\0,1\C\C,1,d1\H,1,d2,2,a
 1\H,1,d3,2,a2,3,t1,0\H,1,d4,2,a3,3,t2,0\H,2,d5,1,a4,3,t3,0\H,2,d6,1,a5
 ,6,t4,0\H,2,d7,1,a6,6,t5,0\\d1=3.54848195\a1=109.00008552\t1=120.00002
 094\d2=1.09179398\a2=109.9998883\t2=-119.99997731\d3=1.09214085\d4=1.0
 9206316\a3=109.00001047\d5=1.09141603\a4=109.0001117\t3=179.99999825\d
 6=1.0917629\a5=109.00003316\t4=120.00001745\d7=1.09187419\a6=109.00003
 142\t5=-120.00001396\\Version=EM64L-G09RevA.02\HF=-79.6380073\RMSD=9.5
 45e-09\RMSF=1.075e-02\Dipole=0.0018235,0.0031838,0.0107346\Quadrupole=
 -1.1938731,-1.2027339,2.396607,-0.0079565,0.0077172,0.0139735\PG=C01 [
 X(C2H6)]\\@


 SEEN ON A WALL AT THE UNIVERSITY OF ILLINOIS AT CHICAGO CIRCLE:

 TO DO IS TO BE  -- SOCRATES
 TO BE IS TO DO  -- SARTRE
 OO BE DO BE DO  -- SINATRA
 Job cpu time:  0 days  0 hours  0 minutes 12.2 seconds.
 File lengths (MBytes):  RWF=      5 Int=      0 D2E=      0 Chk=      1 Scr=      1
 Normal termination of Gaussian 09 at Thu May 27 13:50:14 2021.
