 Entering Gaussian System, Link 0=g09
 Input=c2h6_029.com
 Output=c2h6_029.log
 Initial command:
 /programs/64bit/g09/g09-gfortran/bin/l1.exe /data/scratch/Gau-17605.inp -scrdir=/data/scratch/
 Entering Link 1 = /programs/64bit/g09/g09-gfortran/bin/l1.exe PID=     17606.
  
 Copyright (c) 1988,1990,1992,1993,1995,1998,2003,2009, Gaussian, Inc.
                  All Rights Reserved.
  
 This is part of the Gaussian(R) 09 program.  It is based on
 the Gaussian(R) 03 system (copyright 2003, Gaussian, Inc.),
 the Gaussian(R) 98 system (copyright 1998, Gaussian, Inc.),
 the Gaussian(R) 94 system (copyright 1995, Gaussian, Inc.),
 the Gaussian 92(TM) system (copyright 1992, Gaussian, Inc.),
 the Gaussian 90(TM) system (copyright 1990, Gaussian, Inc.),
 the Gaussian 88(TM) system (copyright 1988, Gaussian, Inc.),
 the Gaussian 86(TM) system (copyright 1986, Carnegie Mellon
 University), and the Gaussian 82(TM) system (copyright 1983,
 Carnegie Mellon University). Gaussian is a federally registered
 trademark of Gaussian, Inc.
  
 This software contains proprietary and confidential information,
 including trade secrets, belonging to Gaussian, Inc.
  
 This software is provided under written license and may be
 used, copied, transmitted, or stored only in accord with that
 written license.
  
 The following legend is applicable only to US Government
 contracts under FAR:
  
                    RESTRICTED RIGHTS LEGEND
  
 Use, reproduction and disclosure by the US Government is
 subject to restrictions as set forth in subparagraphs (a)
 and (c) of the Commercial Computer Software - Restricted
 Rights clause in FAR 52.227-19.
  
 Gaussian, Inc.
 340 Quinnipiac St., Bldg. 40, Wallingford CT 06492
  
  
 ---------------------------------------------------------------
 Warning -- This program may not be used in any manner that
 competes with the business of Gaussian, Inc. or will provide
 assistance to any competitor of Gaussian, Inc.  The licensee
 of this program is prohibited from giving any competitor of
 Gaussian, Inc. access to this program.  By using this program,
 the user acknowledges that Gaussian, Inc. is engaged in the
 business of creating and licensing software in the field of
 computational chemistry and represents and warrants to the
 licensee that it is not a competitor of Gaussian, Inc. and that
 it will not use this program in any manner prohibited above.
 ---------------------------------------------------------------
  

 Cite this work as:
 Gaussian 09, Revision A.02,
 M. J. Frisch, G. W. Trucks, H. B. Schlegel, G. E. Scuseria, 
 M. A. Robb, J. R. Cheeseman, G. Scalmani, V. Barone, B. Mennucci, 
 G. A. Petersson, H. Nakatsuji, M. Caricato, X. Li, H. P. Hratchian, 
 A. F. Izmaylov, J. Bloino, G. Zheng, J. L. Sonnenberg, M. Hada, 
 M. Ehara, K. Toyota, R. Fukuda, J. Hasegawa, M. Ishida, T. Nakajima, 
 Y. Honda, O. Kitao, H. Nakai, T. Vreven, J. A. Montgomery, Jr., 
 J. E. Peralta, F. Ogliaro, M. Bearpark, J. J. Heyd, E. Brothers, 
 K. N. Kudin, V. N. Staroverov, R. Kobayashi, J. Normand, 
 K. Raghavachari, A. Rendell, J. C. Burant, S. S. Iyengar, J. Tomasi, 
 M. Cossi, N. Rega, J. M. Millam, M. Klene, J. E. Knox, J. B. Cross, 
 V. Bakken, C. Adamo, J. Jaramillo, R. Gomperts, R. E. Stratmann, 
 O. Yazyev, A. J. Austin, R. Cammi, C. Pomelli, J. W. Ochterski, 
 R. L. Martin, K. Morokuma, V. G. Zakrzewski, G. A. Voth, 
 P. Salvador, J. J. Dannenberg, S. Dapprich, A. D. Daniels, 
 O. Farkas, J. B. Foresman, J. V. Ortiz, J. Cioslowski, 
 and D. J. Fox, Gaussian, Inc., Wallingford CT, 2009.
 
 ******************************************
 Gaussian 09:  EM64L-G09RevA.02 11-Jun-2009
                27-May-2021 
 ******************************************
 %chk=c2h6_029.chk
 %mem=100MB
 --------------------------------
 #p b3lyp/6-31+g(d,p) force nosym
 --------------------------------
 1/10=7,30=1,38=1/1,3;
 2/12=2,15=1,17=6,18=5,40=1/2;
 3/5=1,6=6,7=111,11=2,16=1,25=1,30=1,71=1,74=-5/1,2,3;
 4//1;
 5/5=2,38=5/2;
 6/7=2,8=2,9=2,10=2,28=1/1;
 7/29=1,30=1/1,2,3,16;
 1/10=7,30=1/3;
 99//99;
 Leave Link    1 at Thu May 27 13:54:35 2021, MaxMem=   13107200 cpu:       0.0
 (Enter /programs/64bit/g09/g09-gfortran/bin/l101.exe)
 -------------
 c2h6 molecule
 -------------
 Symbolic Z-matrix:
 Charge =  0 Multiplicity = 1
 C1
 C2                   1    d1
 H3                   1    d2       2    a1
 H4                   1    d3       2    a2       3    t1       0
 H5                   1    d4       2    a3       3    t2       0
 H6                   2    d5       1    a4       3    t3       0
 H7                   2    d6       1    a5       6    t4       0
 H8                   2    d7       1    a6       6    t5       0
       Variables:
       Constants:
  d1                    1.54094                  
  a1                  109.10539                  
  t1                  120.00005                  
  d2                    1.08984                  
  a2                  110.07859                  
  t2                 -119.99285                  
  d3                    1.09176                  
  d4                    1.09476                  
  a3                  109.10532                  
  d5                    1.09362                  
  a4                  109.10927                  
  t3                  180.                       
  d6                    1.09191                  
  a5                  109.10935                  
  t4                  120.00002                  
  d7                    1.09443                  
  a6                  109.10433                  
  t5                 -120.00002                  
 
 NAtoms=      8 NQM=      8 NQMF=      0 NMic=      0 NMicF=      0 NTot=      8.
                    Isotopes and Nuclear Properties:
 (Nuclear quadrupole moments (NQMom) in fm**2, nuclear magnetic moments (NMagM)
  in nuclear magnetons)

  Atom         1           2           3           4           5           6           7           8
 IAtWgt=          12          12           1           1           1           1           1           1
 AtmWgt=  12.0000000  12.0000000   1.0078250   1.0078250   1.0078250   1.0078250   1.0078250   1.0078250
 NucSpn=           0           0           1           1           1           1           1           1
 AtZEff=   0.0000000   0.0000000   0.0000000   0.0000000   0.0000000   0.0000000   0.0000000   0.0000000
 NQMom=    0.0000000   0.0000000   0.0000000   0.0000000   0.0000000   0.0000000   0.0000000   0.0000000
 NMagM=    0.0000000   0.0000000   2.7928460   2.7928460   2.7928460   2.7928460   2.7928460   2.7928460
 Leave Link  101 at Thu May 27 13:54:35 2021, MaxMem=   13107200 cpu:       0.0
 (Enter /programs/64bit/g09/g09-gfortran/bin/l103.exe)

 GradGradGradGradGradGradGradGradGradGradGradGradGradGradGradGradGradGrad
 Berny optimization.
 Initialization pass.
                       ----------------------------
                       !    Initial Parameters    !
                       ! (Angstroms and Degrees)  !
 ----------------------                            ----------------------
 !      Name          Value   Derivative information (Atomic Units)     !
 ------------------------------------------------------------------------
 !       d1          1.5409   Frozen                                    !
 !       a1        109.1054   Frozen                                    !
 !       t1        120.0      Frozen                                    !
 !       d2          1.0898   Frozen                                    !
 !       a2        110.0786   Frozen                                    !
 !       t2       -119.9928   Frozen                                    !
 !       d3          1.0918   Frozen                                    !
 !       d4          1.0948   Frozen                                    !
 !       a3        109.1053   Frozen                                    !
 !       d5          1.0936   Frozen                                    !
 !       a4        109.1093   Frozen                                    !
 !       t3        180.0      Frozen                                    !
 !       d6          1.0919   Frozen                                    !
 !       a5        109.1094   Frozen                                    !
 !       t4        120.0      Frozen                                    !
 !       d7          1.0944   Frozen                                    !
 !       a6        109.1043   Frozen                                    !
 !       t5       -120.0      Frozen                                    !
 ------------------------------------------------------------------------
 Trust Radius=3.00D-01 FncErr=1.00D-07 GrdErr=1.00D-07
 Number of steps in this run=   2 maximum allowed number of steps=   2.
 GradGradGradGradGradGradGradGradGradGradGradGradGradGradGradGradGradGrad

 Leave Link  103 at Thu May 27 13:54:35 2021, MaxMem=   13107200 cpu:       0.0
 (Enter /programs/64bit/g09/g09-gfortran/bin/l202.exe)
                          Input orientation:                          
 ---------------------------------------------------------------------
 Center     Atomic      Atomic             Coordinates (Angstroms)
 Number     Number       Type             X           Y           Z
 ---------------------------------------------------------------------
      1          6           0        0.000000    0.000000    0.000000
      2          6           0        0.000000    0.000000    1.540938
      3          1           0        1.029808    0.000000   -0.356711
      4          1           0       -0.512704   -0.888028   -0.374811
      5          1           0       -0.517119    0.895934   -0.358322
      6          1           0       -1.033361    0.000000    1.898959
      7          1           0        0.515869   -0.893510    1.898398
      8          1           0        0.517076    0.895602    1.899133
 ---------------------------------------------------------------------
                    Distance matrix (angstroms):
                    1          2          3          4          5
     1  C    0.000000
     2  C    1.540938   0.000000
     3  H    1.089838   2.159069   0.000000
     4  H    1.091761   2.172914   1.779962   0.000000
     5  H    1.094762   2.162706   1.787647   1.784044   0.000000
     6  H    2.161916   1.093624   3.056913   2.495938   2.482845
     7  H    2.160647   1.091906   2.479518   2.495089   3.059731
     8  H    2.162447   1.094429   2.480691   3.067997   2.483075
                    6          7          8
     6  H    0.000000
     7  H    1.788428   0.000000
     8  H    1.790519   1.789113   0.000000
 Symmetry turned off by external request.
 Stoichiometry    C2H6
 Framework group  C1[X(C2H6)]
 Deg. of freedom    18
 Full point group                 C1      NOp   1
 Rotational constants (GHZ):     78.5506001     20.0595204     20.0501289
 Leave Link  202 at Thu May 27 13:54:35 2021, MaxMem=   13107200 cpu:       0.0
 (Enter /programs/64bit/g09/g09-gfortran/bin/l301.exe)
 Standard basis: 6-31+G(d,p) (6D, 7F)
 Ernie: Thresh=  0.10000D-02 Tol=  0.10000D-05 Strict=F.
 Integral buffers will be    131072 words long.
 Raffenetti 2 integral format.
 Two-electron integral symmetry is turned off.
    68 basis functions,   106 primitive gaussians,    68 cartesian basis functions
     9 alpha electrons        9 beta electrons
       nuclear repulsion energy        42.1758380481 Hartrees.
 IExCor=  402 DFT=T Ex+Corr=B3LYP ExCW=0 ScaHFX=  0.200000
 ScaDFX=  0.800000  0.720000  1.000000  0.810000 ScalE2=  1.000000  1.000000
 IRadAn=      0 IRanWt=     -1 IRanGd=            0 ICorTp=0
 NAtoms=    8 NActive=    8 NUniq=    8 SFac= 7.50D-01 NAtFMM=   80 NAOKFM=F Big=F
 Leave Link  301 at Thu May 27 13:54:35 2021, MaxMem=   13107200 cpu:       0.0
 (Enter /programs/64bit/g09/g09-gfortran/bin/l302.exe)
 NPDir=0 NMtPBC=     1 NCelOv=     1 NCel=       1 NClECP=     1 NCelD=      1
         NCelK=      1 NCelE2=     1 NClLst=     1 CellRange=     0.0.
 One-electron integrals computed using PRISM.
 NBasis=    68 RedAO= T  NBF=    68
 NBsUse=    68 1.00D-06 NBFU=    68
 Precomputing XC quadrature grid using
 IXCGrd= 2 IRadAn=           0 IRanWt=          -1 IRanGd=           0 AccXCQ= 1.00D-10.
 NRdTot=     510 NPtTot=       65100 NUsed=       68787 NTot=       68819
 NSgBfM=    68    68    68    68    68 NAtAll=     8     8.
 Leave Link  302 at Thu May 27 13:54:35 2021, MaxMem=   13107200 cpu:       0.1
 (Enter /programs/64bit/g09/g09-gfortran/bin/l303.exe)
 DipDrv:  MaxL=1.
 Leave Link  303 at Thu May 27 13:54:35 2021, MaxMem=   13107200 cpu:       0.0
 (Enter /programs/64bit/g09/g09-gfortran/bin/l401.exe)
 Harris functional with IExCor=  402 diagonalized for initial guess.
 ExpMin= 4.38D-02 ExpMax= 3.05D+03 ExpMxC= 4.57D+02 IAcc=2 IRadAn=         0 AccDes= 0.00D+00
 HarFok:  IExCor=  402 AccDes= 0.00D+00 IRadAn=         0 IDoV= 1
 ScaDFX=  1.000000  1.000000  1.000000  1.000000
 FoFCou: FMM=F IPFlag=           0 FMFlag=      100000 FMFlg1=           0
         NFxFlg=           0 DoJE=T BraDBF=F KetDBF=T FulRan=T
         Omega=  0.000000  0.000000  1.000000  0.000000  0.000000 ICntrl=     500 IOpCl=  0
         NMat0=    1 NMatS0=    1 NMatT0=    0 NMatD0=    1 NMtDS0=    0 NMtDT0=    0
         I1Cent=           4 NGrid=           0.
 Symmetry not used in FoFCou.
 Harris En= -79.8984713625683    
 Leave Link  401 at Thu May 27 13:54:36 2021, MaxMem=   13107200 cpu:       0.6
 (Enter /programs/64bit/g09/g09-gfortran/bin/l502.exe)
 Closed shell SCF:
 Requested convergence on RMS density matrix=1.00D-08 within 128 cycles.
 Requested convergence on MAX density matrix=1.00D-06.
 Requested convergence on             energy=1.00D-06.
 No special actions if energy rises.
 Using DIIS extrapolation, IDIIS=  1040.
 Two-electron integral symmetry not used.
        68702 words used for storage of precomputed grid.
 Keep R1 ints in memory in canonical form, NReq=3743087.
 IEnd=      101552 IEndB=      101552 NGot=    13107200 MDV=    10273922
 LenX=    10273922 LenY=    10268857
 Symmetry not used in FoFDir.
 MinBra= 0 MaxBra= 2 Meth= 1.
 IRaf=       0 NMat=   1 IRICut=       1 DoRegI=T DoRafI=F ISym2E= 0 JSym2E=0.

 Cycle   1  Pass 1  IDiag  1:
 E= -79.7085743729939    
 DIIS: error= 3.99D-02 at cycle   1 NSaved=   1.
 NSaved= 1 IEnMin= 1 EnMin= -79.7085743729939     IErMin= 1 ErrMin= 3.99D-02
 ErrMax= 3.99D-02 EMaxC= 1.00D-01 BMatC= 1.16D-01 BMatP= 1.16D-01
 IDIUse=3 WtCom= 6.01D-01 WtEn= 3.99D-01
 Coeff-Com:  0.100D+01
 Coeff-En:   0.100D+01
 Coeff:      0.100D+01
 Gap=     0.282 Goal=   None    Shift=    0.000
 GapD=    0.282 DampG=1.000 DampE=0.500 DampFc=0.5000 IDamp=-1.
 Damping current iteration by 5.00D-01
 RMSDP=9.63D-03 MaxDP=1.40D-01              OVMax= 2.03D-01

 Cycle   2  Pass 1  IDiag  1:
 E= -79.7634465768802     Delta-E=       -0.054872203886 Rises=F Damp=T
 DIIS: error= 1.16D-02 at cycle   2 NSaved=   2.
 NSaved= 2 IEnMin= 2 EnMin= -79.7634465768802     IErMin= 2 ErrMin= 1.16D-02
 ErrMax= 1.16D-02 EMaxC= 1.00D-01 BMatC= 4.52D-03 BMatP= 1.16D-01
 IDIUse=3 WtCom= 8.84D-01 WtEn= 1.16D-01
 Coeff-Com:  0.108D+00 0.892D+00
 Coeff-En:   0.185D+00 0.815D+00
 Coeff:      0.117D+00 0.883D+00
 Gap=     0.373 Goal=   None    Shift=    0.000
 RMSDP=1.29D-03 MaxDP=9.85D-03 DE=-5.49D-02 OVMax= 1.26D-01

 Cycle   3  Pass 1  IDiag  1:
 E= -79.8403710140594     Delta-E=       -0.076924437179 Rises=F Damp=F
 DIIS: error= 2.28D-03 at cycle   3 NSaved=   3.
 NSaved= 3 IEnMin= 3 EnMin= -79.8403710140594     IErMin= 3 ErrMin= 2.28D-03
 ErrMax= 2.28D-03 EMaxC= 1.00D-01 BMatC= 1.53D-04 BMatP= 4.52D-03
 IDIUse=3 WtCom= 9.77D-01 WtEn= 2.28D-02
 Coeff-Com:  0.713D-02 0.106D+00 0.887D+00
 Coeff-En:   0.000D+00 0.000D+00 0.100D+01
 Coeff:      0.696D-02 0.103D+00 0.890D+00
 Gap=     0.364 Goal=   None    Shift=    0.000
 RMSDP=1.98D-04 MaxDP=2.15D-03 DE=-7.69D-02 OVMax= 4.57D-03

 Cycle   4  Pass 1  IDiag  1:
 E= -79.8405020479401     Delta-E=       -0.000131033881 Rises=F Damp=F
 DIIS: error= 6.98D-04 at cycle   4 NSaved=   4.
 NSaved= 4 IEnMin= 4 EnMin= -79.8405020479401     IErMin= 4 ErrMin= 6.98D-04
 ErrMax= 6.98D-04 EMaxC= 1.00D-01 BMatC= 1.05D-05 BMatP= 1.53D-04
 IDIUse=3 WtCom= 9.93D-01 WtEn= 6.98D-03
 Coeff-Com: -0.538D-03-0.526D-02 0.197D+00 0.808D+00
 Coeff-En:   0.000D+00 0.000D+00 0.000D+00 0.100D+01
 Coeff:     -0.534D-03-0.522D-02 0.196D+00 0.810D+00
 Gap=     0.364 Goal=   None    Shift=    0.000
 RMSDP=4.39D-05 MaxDP=4.50D-04 DE=-1.31D-04 OVMax= 1.22D-03

 Cycle   5  Pass 1  IDiag  1:
 E= -79.8405119733841     Delta-E=       -0.000009925444 Rises=F Damp=F
 DIIS: error= 2.51D-05 at cycle   5 NSaved=   5.
 NSaved= 5 IEnMin= 5 EnMin= -79.8405119733841     IErMin= 5 ErrMin= 2.51D-05
 ErrMax= 2.51D-05 EMaxC= 1.00D-01 BMatC= 2.39D-08 BMatP= 1.05D-05
 IDIUse=1 WtCom= 1.00D+00 WtEn= 0.00D+00
 Coeff-Com:  0.373D-03-0.496D-03-0.642D-02-0.110D-01 0.102D+01
 Coeff:      0.373D-03-0.496D-03-0.642D-02-0.110D-01 0.102D+01
 Gap=     0.364 Goal=   None    Shift=    0.000
 RMSDP=2.47D-06 MaxDP=5.32D-05 DE=-9.93D-06 OVMax= 8.65D-05

 Cycle   6  Pass 1  IDiag  1:
 E= -79.8405119985788     Delta-E=       -0.000000025195 Rises=F Damp=F
 DIIS: error= 1.01D-05 at cycle   6 NSaved=   6.
 NSaved= 6 IEnMin= 6 EnMin= -79.8405119985788     IErMin= 6 ErrMin= 1.01D-05
 ErrMax= 1.01D-05 EMaxC= 1.00D-01 BMatC= 2.89D-09 BMatP= 2.39D-08
 IDIUse=1 WtCom= 1.00D+00 WtEn= 0.00D+00
 Coeff-Com:  0.177D-03-0.197D-03-0.473D-02-0.120D-01 0.481D+00 0.536D+00
 Coeff:      0.177D-03-0.197D-03-0.473D-02-0.120D-01 0.481D+00 0.536D+00
 Gap=     0.364 Goal=   None    Shift=    0.000
 RMSDP=6.98D-07 MaxDP=1.46D-05 DE=-2.52D-08 OVMax= 2.05D-05

 Cycle   7  Pass 1  IDiag  1:
 E= -79.8405120013025     Delta-E=       -0.000000002724 Rises=F Damp=F
 DIIS: error= 1.81D-06 at cycle   7 NSaved=   7.
 NSaved= 7 IEnMin= 7 EnMin= -79.8405120013025     IErMin= 7 ErrMin= 1.81D-06
 ErrMax= 1.81D-06 EMaxC= 1.00D-01 BMatC= 9.76D-11 BMatP= 2.89D-09
 IDIUse=1 WtCom= 1.00D+00 WtEn= 0.00D+00
 Coeff-Com: -0.774D-05 0.397D-05-0.258D-03-0.977D-03-0.621D-02 0.149D+00
 Coeff-Com:  0.859D+00
 Coeff:     -0.774D-05 0.397D-05-0.258D-03-0.977D-03-0.621D-02 0.149D+00
 Coeff:      0.859D+00
 Gap=     0.364 Goal=   None    Shift=    0.000
 RMSDP=1.27D-07 MaxDP=2.41D-06 DE=-2.72D-09 OVMax= 3.31D-06

 Cycle   8  Pass 1  IDiag  1:
 E= -79.8405120014003     Delta-E=       -0.000000000098 Rises=F Damp=F
 DIIS: error= 1.13D-07 at cycle   8 NSaved=   8.
 NSaved= 8 IEnMin= 8 EnMin= -79.8405120014003     IErMin= 8 ErrMin= 1.13D-07
 ErrMax= 1.13D-07 EMaxC= 1.00D-01 BMatC= 5.22D-13 BMatP= 9.76D-11
 IDIUse=1 WtCom= 1.00D+00 WtEn= 0.00D+00
 Coeff-Com: -0.325D-05 0.226D-05-0.506D-04-0.242D-03-0.454D-02 0.417D-01
 Coeff-Com:  0.257D+00 0.706D+00
 Coeff:     -0.325D-05 0.226D-05-0.506D-04-0.242D-03-0.454D-02 0.417D-01
 Coeff:      0.257D+00 0.706D+00
 Gap=     0.364 Goal=   None    Shift=    0.000
 RMSDP=1.56D-08 MaxDP=1.66D-07 DE=-9.77D-11 OVMax= 2.70D-07

 Cycle   9  Pass 1  IDiag  1:
 E= -79.8405120014007     Delta-E=       -0.000000000000 Rises=F Damp=F
 DIIS: error= 1.34D-08 at cycle   9 NSaved=   9.
 NSaved= 9 IEnMin= 9 EnMin= -79.8405120014007     IErMin= 9 ErrMin= 1.34D-08
 ErrMax= 1.34D-08 EMaxC= 1.00D-01 BMatC= 8.74D-15 BMatP= 5.22D-13
 IDIUse=1 WtCom= 1.00D+00 WtEn= 0.00D+00
 Coeff-Com: -0.378D-08 0.152D-06 0.737D-05 0.111D-04-0.363D-03-0.240D-02
 Coeff-Com: -0.116D-01 0.827D-01 0.932D+00
 Coeff:     -0.378D-08 0.152D-06 0.737D-05 0.111D-04-0.363D-03-0.240D-02
 Coeff:     -0.116D-01 0.827D-01 0.932D+00
 Gap=     0.364 Goal=   None    Shift=    0.000
 RMSDP=1.96D-09 MaxDP=2.03D-08 DE=-4.69D-13 OVMax= 4.40D-08

 SCF Done:  E(RB3LYP) =  -79.8405120014     A.U. after    9 cycles
             Convg  =    0.1959D-08             -V/T =  2.0107
 KE= 7.899269001005D+01 PE=-2.681097772046D+02 EE= 6.710073714509D+01
 Leave Link  502 at Thu May 27 13:54:41 2021, MaxMem=   13107200 cpu:       4.8
 (Enter /programs/64bit/g09/g09-gfortran/bin/l601.exe)
 Copying SCF densities to generalized density rwf, IOpCl= 0 IROHF=0.

 **********************************************************************

            Population analysis using the SCF density.

 **********************************************************************

 Alpha  occ. eigenvalues --  -10.17677 -10.17616  -0.75382  -0.61324  -0.43946
 Alpha  occ. eigenvalues --   -0.43868  -0.35741  -0.34742  -0.34698
 Alpha virt. eigenvalues --    0.01750   0.03186   0.05274   0.05287   0.07957
 Alpha virt. eigenvalues --    0.08973   0.08979   0.14255   0.19019   0.19084
 Alpha virt. eigenvalues --    0.20480   0.20622   0.24766   0.29466   0.32898
 Alpha virt. eigenvalues --    0.61944   0.64335   0.64389   0.66428   0.66534
 Alpha virt. eigenvalues --    0.69448   0.92032   0.92108   0.97172   0.97248
 Alpha virt. eigenvalues --    0.99790   1.09816   1.11362   1.32006   1.32237
 Alpha virt. eigenvalues --    1.46410   1.68875   1.69116   1.89964   2.04221
 Alpha virt. eigenvalues --    2.04421   2.08824   2.08876   2.09439   2.09783
 Alpha virt. eigenvalues --    2.29218   2.29561   2.37968   2.49356   2.49728
 Alpha virt. eigenvalues --    2.66494   2.72553   2.80784   2.80928   2.91743
 Alpha virt. eigenvalues --    2.92289   3.22562   3.28460   3.36660   3.36857
 Alpha virt. eigenvalues --    3.52422   3.52636   4.33432   4.58329
          Condensed to atoms (all electrons):
              1          2          3          4          5          6
     1  C    5.100818   0.258855   0.405656   0.405019   0.405618  -0.046897
     2  C    0.258855   5.096296  -0.046617  -0.045004  -0.046737   0.405841
     3  H    0.405656  -0.046617   0.556429  -0.028605  -0.027853   0.004873
     4  H    0.405019  -0.045004  -0.028605   0.556061  -0.028438  -0.004440
     5  H    0.405618  -0.046737  -0.027853  -0.028438   0.557160  -0.004537
     6  H   -0.046897   0.405841   0.004873  -0.004440  -0.004537   0.556216
     7  H   -0.046702   0.405701  -0.004544  -0.004438   0.004854  -0.027972
     8  H   -0.047582   0.406848  -0.004585   0.004765  -0.004579  -0.028033
              7          8
     1  C   -0.046702  -0.047582
     2  C    0.405701   0.406848
     3  H   -0.004544  -0.004585
     4  H   -0.004438   0.004765
     5  H    0.004854  -0.004579
     6  H   -0.027972  -0.028033
     7  H    0.556055  -0.028107
     8  H   -0.028107   0.556245
 Mulliken atomic charges:
              1
     1  C   -0.434785
     2  C   -0.435184
     3  H    0.145247
     4  H    0.145079
     5  H    0.144513
     6  H    0.144949
     7  H    0.145153
     8  H    0.145028
 Sum of Mulliken atomic charges =  -0.00000
 Mulliken charges with hydrogens summed into heavy atoms:
              1
     1  C    0.000054
     2  C   -0.000054
 Sum of Mulliken charges with hydrogens summed into heavy atoms =  -0.00000
 Electronic spatial extent (au):  <R**2>=            147.9643
 Charge=             -0.0000 electrons
 Dipole moment (field-independent basis, Debye):
    X=              0.0029    Y=             -0.0033    Z=             -0.0038  Tot=              0.0059
 Quadrupole moment (field-independent basis, Debye-Ang):
   XX=            -14.9364   YY=            -14.9438   ZZ=            -16.1857
   XY=             -0.0069   XZ=              0.0127   YZ=              0.0201
 Traceless Quadrupole moment (field-independent basis, Debye-Ang):
   XX=              0.4189   YY=              0.4115   ZZ=             -0.8304
   XY=             -0.0069   XZ=              0.0127   YZ=              0.0201
 Octapole moment (field-independent basis, Debye-Ang**2):
  XXX=              0.0038  YYY=             -0.0330  ZZZ=            -37.4231  XYY=              0.0158
  XXY=             -0.0111  XXZ=            -11.4917  XZZ=              0.0063  YZZ=             -0.0180
  YYZ=            -11.4954  XYZ=             -0.0008
 Hexadecapole moment (field-independent basis, Debye-Ang**3):
 XXXX=            -31.2299 YYYY=            -31.2674 ZZZZ=           -156.6705 XXXY=              0.0058
 XXXZ=             -1.3104 YYYX=              0.0007 YYYZ=             -0.0157 ZZZX=              0.0095
 ZZZY=             -0.0039 XXYY=            -10.4161 XXZZ=            -29.4639 YYZZ=            -29.4535
 XXYZ=             -0.0052 YYXZ=              1.3043 ZZXY=              0.0180
 N-N= 4.217583804808D+01 E-N=-2.681097774208D+02  KE= 7.899269001005D+01
 No NMR shielding tensors so no spin-rotation constants.
 Leave Link  601 at Thu May 27 13:54:41 2021, MaxMem=   13107200 cpu:       0.0
 (Enter /programs/64bit/g09/g09-gfortran/bin/l701.exe)
 Compute integral first derivatives.
 ... and contract with generalized density number  0.
 Leave Link  701 at Thu May 27 13:54:41 2021, MaxMem=   13107200 cpu:       0.0
 (Enter /programs/64bit/g09/g09-gfortran/bin/l702.exe)
 L702 exits ... SP integral derivatives will be done elsewhere.
 Leave Link  702 at Thu May 27 13:54:41 2021, MaxMem=   13107200 cpu:       0.0
 (Enter /programs/64bit/g09/g09-gfortran/bin/l703.exe)
 Compute integral first derivatives, UseDBF=F ICtDFT=           0.
 Integral derivatives from FoFDir, PRISM(SPDF).
 Calling FoFJK, ICntrl=      2127 FMM=F ISym2X=0 I1Cent= 0 IOpClX= 0 NMat=1 NMatS=1 NMatT=0.
 FoFCou: FMM=F IPFlag=           0 FMFlag=      100000 FMFlg1=         800
         NFxFlg=           0 DoJE=F BraDBF=F KetDBF=F FulRan=T
         Omega=  0.000000  0.000000  1.000000  0.000000  0.000000 ICntrl=    2127 IOpCl=  0
         NMat0=    1 NMatS0=    1 NMatT0=    0 NMatD0=    1 NMtDS0=    0 NMtDT0=    0
         I1Cent=           0 NGrid=           0.
 Symmetry not used in FoFCou.
 Leave Link  703 at Thu May 27 13:54:42 2021, MaxMem=   13107200 cpu:       1.1
 (Enter /programs/64bit/g09/g09-gfortran/bin/l716.exe)
 Dipole        = 1.12956965D-03-1.31594836D-03-1.51352399D-03
 -------------------------------------------------------------------
 Center     Atomic                   Forces (Hartrees/Bohr)
 Number     Number              X              Y              Z
 -------------------------------------------------------------------
      1        6          -0.001581829    0.002117264    0.011388913
      2        6          -0.000897611    0.000323500   -0.012513719
      3        1           0.001281414    0.000508530   -0.005760423
      4        1          -0.000316198   -0.000392799   -0.003845051
      5        1           0.001225475   -0.001265431   -0.004701258
      6        1           0.001270080    0.000028689    0.005182676
      7        1          -0.000093018    0.000182920    0.005541922
      8        1          -0.000888314   -0.001502675    0.004706940
 -------------------------------------------------------------------
 Cartesian Forces:  Max     0.012513719 RMS     0.004349109
 -----------------------------------------------------------------------------------------------
                       Internal Coordinate Forces (Hartree/Bohr or radian)
  Cent   Atom   N1       Length/X         N2         Alpha/Y        N3         Beta/Z          J
 -----------------------------------------------------------------------------------------------
      1  C 
      2  C        1   0.002918(     1)
      3  H        1   0.003096(     2)      2   0.010346(     8)
      4  H        1   0.001788(     3)      2   0.007098(     9)      3   0.000150(    14)     0
      5  H        1  -0.000076(     4)      2   0.010347(    10)      3   0.000838(    15)     0
      6  H        2   0.000497(     5)      1   0.010980(    11)      3   0.000000(    16)     0
      7  H        2   0.001621(     6)      1   0.010944(    12)      6   0.000021(    17)     0
      8  H        2  -0.000109(     7)      1   0.010380(    13)      6   0.000035(    18)     0
 -----------------------------------------------------------------------------------------------
 Internal  Forces:  Max     0.010979860 RMS     0.005951043
 Force constants in Cartesian coordinates: 
                1             2             3             4             5 
      1  0.660036D+00
      2  0.201347D-03  0.655945D+00
      3  0.828446D-03  0.417357D-02  0.602271D+00
      4 -0.858918D-01 -0.159369D-03 -0.151081D-03  0.658332D+00
      5 -0.159416D-03 -0.860549D-01 -0.615042D-04 -0.965261D-03  0.658737D+00
      6  0.109388D-04 -0.498517D-04 -0.284360D+00  0.137137D-03 -0.714873D-03
      7 -0.315608D+00 -0.840614D-04  0.841399D-01  0.876120D-02 -0.163298D-05
      8 -0.170181D-03 -0.788247D-01 -0.209731D-03 -0.467822D-05  0.739225D-03
      9  0.944179D-01 -0.242681D-03 -0.105406D+00  0.252931D-01 -0.471432D-05
     10 -0.136592D+00 -0.100302D+00 -0.434202D-01  0.287456D-02  0.363877D-02
     11 -0.100435D+00 -0.252624D+00 -0.753434D-01  0.363780D-02  0.707442D-02
     12 -0.486262D-01 -0.842632D-01 -0.108195D+00 -0.125510D-01 -0.217387D-01
     13 -0.136130D+00  0.100353D+00 -0.413970D-01  0.273397D-02 -0.346166D-02
     14  0.100572D+00 -0.252630D+00  0.714411D-01 -0.345768D-02  0.672268D-02
     15 -0.466202D-01  0.803323D-01 -0.104310D+00 -0.125910D-01  0.218049D-01
     16  0.873176D-02  0.000000D+00  0.000000D+00 -0.311780D+00  0.457786D-05
     17 -0.112970D-04  0.728775D-03  0.000000D+00 -0.551490D-04 -0.792093D-01
     18  0.252026D-01  0.000000D+00  0.000000D+00  0.929146D-01  0.131899D-04
     19  0.274071D-02 -0.347578D-02  0.000000D+00 -0.137943D+00  0.101378D+00
     20 -0.346691D-02  0.673884D-02  0.000000D+00  0.101392D+00 -0.255024D+00
     21 -0.126212D-01  0.218606D-01  0.000000D+00 -0.467208D-01  0.809328D-01
     22  0.271432D-02  0.346676D-02  0.000000D+00 -0.137087D+00 -0.100433D+00
     23  0.346919D-02  0.672162D-02  0.000000D+00 -0.100388D+00 -0.252984D+00
     24 -0.125924D-01 -0.218107D-01  0.000000D+00 -0.463309D-01 -0.802311D-01
                6             7             8             9            10 
      6  0.596424D+00
      7  0.000000D+00  0.317104D+00
      8  0.000000D+00  0.937604D-04  0.588732D-01
      9  0.000000D+00 -0.901005D-01  0.270682D-03  0.881976D-01
     10  0.000000D+00 -0.521206D-02 -0.273448D-01 -0.150470D-01  0.122146D+00
     11  0.000000D+00  0.173093D-02  0.943028D-02  0.499712D-02  0.109602D+00
     12  0.000000D+00  0.302854D-02  0.150621D-01  0.874323D-02  0.466693D-01
     13  0.000000D+00 -0.504462D-02  0.274271D-01 -0.145636D-01  0.167853D-01
     14  0.000000D+00 -0.173900D-02  0.978215D-02 -0.502041D-02  0.144067D-01
     15  0.000000D+00  0.293211D-02 -0.151230D-01  0.846485D-02  0.117979D-01
     16  0.831553D-01  0.000000D+00  0.000000D+00  0.000000D+00  0.000000D+00
     17  0.362686D-04  0.000000D+00  0.605232D-03  0.000000D+00  0.526395D-03
     18 -0.103959D+00  0.000000D+00  0.000000D+00  0.000000D+00  0.000000D+00
     19 -0.418410D-01  0.000000D+00 -0.524971D-03  0.000000D+00 -0.456589D-03
     20  0.724952D-01  0.000000D+00 -0.303092D-03  0.000000D+00 -0.263612D-03
     21 -0.104340D+00  0.000000D+00  0.000000D+00  0.000000D+00  0.000000D+00
     22 -0.414623D-01  0.000000D+00  0.523745D-03  0.000000D+00  0.455523D-03
     23 -0.717667D-01  0.000000D+00 -0.302385D-03  0.000000D+00 -0.262997D-03
     24 -0.103765D+00  0.000000D+00  0.000000D+00  0.000000D+00  0.000000D+00
               11            12            13            14            15 
     11  0.248703D+00
     12  0.808323D-01  0.907465D-01
     13 -0.145361D-01  0.114794D-01  0.121655D+00
     14 -0.125838D-01  0.101075D-01 -0.109783D+00  0.248709D+00
     15 -0.104860D-01  0.870579D-02  0.444812D-01 -0.765282D-01  0.871390D-01
     16  0.000000D+00  0.000000D+00  0.000000D+00  0.000000D+00  0.000000D+00
     17 -0.303915D-03  0.000000D+00 -0.521826D-03 -0.301190D-03  0.000000D+00
     18  0.000000D+00  0.000000D+00  0.000000D+00  0.000000D+00  0.000000D+00
     19  0.263612D-03  0.000000D+00  0.452626D-03  0.261248D-03  0.000000D+00
     20  0.152197D-03  0.000000D+00  0.261324D-03  0.150832D-03  0.000000D+00
     21  0.000000D+00  0.000000D+00  0.000000D+00  0.000000D+00  0.000000D+00
     22 -0.262997D-03  0.000000D+00 -0.451569D-03 -0.260638D-03  0.000000D+00
     23  0.151841D-03  0.000000D+00  0.260714D-03  0.150480D-03  0.000000D+00
     24  0.000000D+00  0.000000D+00  0.000000D+00  0.000000D+00  0.000000D+00
               16            17            18            19            20 
     16  0.313123D+00
     17  0.000000D+00  0.589526D-01
     18 -0.890380D-01 -0.165752D-05  0.869794D-01
     19 -0.504368D-02  0.273990D-01 -0.145577D-01  0.123078D+00
     20 -0.173381D-02  0.977414D-02 -0.500433D-02 -0.110745D+00  0.250954D+00
     21  0.294494D-02 -0.151094D-01  0.850003D-02  0.447940D-01 -0.775883D-01
     22 -0.503118D-02 -0.273366D-01 -0.145216D-01  0.171724D-01  0.145565D-01
     23  0.172983D-02  0.975364D-02  0.499282D-02 -0.145558D-01 -0.124427D-01
     24  0.293771D-02  0.150748D-01  0.847916D-02  0.116047D-01  0.100975D-01
               21            22            23            24 
     21  0.873479D-01
     22  0.116031D-01  0.122227D+00
     23 -0.100956D-01  0.109747D+00  0.248952D+00
     24  0.849248D-02  0.443809D-01  0.768695D-01  0.867933D-01
 Force constants in internal coordinates: 
                1             2             3             4             5 
      1  0.284360D+00
      2  0.000000D+00  0.348313D+00
      3  0.000000D+00  0.000000D+00  0.346099D+00
      4  0.000000D+00  0.000000D+00  0.000000D+00  0.342681D+00
      5  0.000000D+00  0.000000D+00  0.000000D+00  0.000000D+00  0.343971D+00
      6  0.000000D+00  0.000000D+00  0.000000D+00  0.000000D+00  0.000000D+00
      7  0.000000D+00  0.000000D+00  0.000000D+00  0.000000D+00  0.000000D+00
      8  0.000000D+00  0.000000D+00  0.000000D+00  0.000000D+00  0.000000D+00
      9  0.000000D+00  0.000000D+00  0.000000D+00  0.000000D+00  0.000000D+00
     10  0.000000D+00  0.000000D+00  0.000000D+00  0.000000D+00  0.000000D+00
     11  0.000000D+00  0.000000D+00  0.000000D+00  0.000000D+00  0.000000D+00
     12  0.000000D+00  0.000000D+00  0.000000D+00  0.000000D+00  0.000000D+00
     13  0.000000D+00  0.000000D+00  0.000000D+00  0.000000D+00  0.000000D+00
     14  0.000000D+00  0.000000D+00  0.000000D+00  0.000000D+00  0.000000D+00
     15  0.000000D+00  0.000000D+00  0.000000D+00  0.000000D+00  0.000000D+00
     16  0.000000D+00  0.000000D+00  0.000000D+00  0.000000D+00  0.000000D+00
     17  0.000000D+00  0.000000D+00  0.000000D+00  0.000000D+00  0.000000D+00
     18  0.000000D+00  0.000000D+00  0.000000D+00  0.000000D+00  0.000000D+00
                6             7             8             9            10 
      6  0.345933D+00
      7  0.000000D+00  0.343058D+00
      8  0.000000D+00  0.000000D+00  0.241716D+00
      9  0.000000D+00  0.000000D+00  0.418597D-01  0.241043D+00
     10  0.000000D+00  0.000000D+00  0.403934D-01  0.418688D-01  0.241724D+00
     11  0.000000D+00  0.000000D+00  0.000000D+00  0.000000D+00  0.000000D+00
     12  0.000000D+00  0.000000D+00  0.000000D+00  0.000000D+00  0.000000D+00
     13  0.000000D+00  0.000000D+00  0.000000D+00  0.000000D+00  0.000000D+00
     14  0.000000D+00  0.000000D+00 -0.655877D-01  0.247177D-05  0.655899D-01
     15  0.000000D+00  0.000000D+00  0.644343D-01 -0.643892D-01 -0.115037D-02
     16  0.000000D+00  0.000000D+00  0.000000D+00  0.000000D+00  0.000000D+00
     17  0.000000D+00  0.000000D+00  0.000000D+00  0.000000D+00  0.000000D+00
     18  0.000000D+00  0.000000D+00  0.000000D+00  0.000000D+00  0.000000D+00
               11            12            13            14            15 
     11  0.239739D+00
     12  0.405979D-01  0.239739D+00
     13  0.405906D-01  0.405905D-01  0.239742D+00
     14  0.000000D+00  0.000000D+00  0.000000D+00  0.221035D+00
     15  0.000000D+00  0.000000D+00  0.000000D+00 -0.107074D+00  0.222955D+00
     16  0.000000D+00  0.000000D+00  0.000000D+00  0.690000D-02  0.690000D-02
     17 -0.644317D-01 -0.634087D-05  0.644315D-01  0.230000D-02  0.230000D-02
     18  0.644245D-01 -0.644253D-01  0.000000D+00  0.230000D-02  0.230000D-02
               16            17            18 
     16  0.207000D-01
     17  0.689958D-02  0.224804D+00
     18  0.690038D-02 -0.108957D+00  0.224815D+00
 Leave Link  716 at Thu May 27 13:54:42 2021, MaxMem=   13107200 cpu:       0.0
 (Enter /programs/64bit/g09/g09-gfortran/bin/l103.exe)

 GradGradGradGradGradGradGradGradGradGradGradGradGradGradGradGradGradGrad
 Berny optimization.
 Search for a local minimum.
 Step number   1 out of a maximum of    2
 All quantities printed in internal units (Hartrees-Bohrs-Radians)
 Second derivative matrix not updated -- first step.
 The second derivative matrix:
                          d1        a1        t1        d2        a2
           d1           0.28436
           a1           0.00000   0.24172
           t1          -0.00000  -0.06559   0.22104
           d2           0.00000   0.00000  -0.00000   0.34831
           a2           0.00000   0.04186   0.00000   0.00000   0.24104
           t2          -0.00000   0.06443  -0.10707   0.00000  -0.06439
           d3          -0.00000   0.00000  -0.00000  -0.00000   0.00000
           d4           0.00000  -0.00000   0.00000  -0.00000   0.00000
           a3          -0.00000   0.04039   0.06559   0.00000   0.04187
           d5          -0.00000   0.00000   0.00000   0.00000   0.00000
           a4          -0.00000   0.00000  -0.00000   0.00000   0.00000
           t3           0.00000   0.00000   0.00690   0.00000   0.00000
           d6          -0.00000   0.00000   0.00000   0.00000  -0.00000
           a5          -0.00000   0.00000  -0.00000   0.00000   0.00000
           t4          -0.00000   0.00000   0.00230   0.00000   0.00000
           d7           0.00000   0.00000   0.00000   0.00000  -0.00000
           a6           0.00000   0.00000  -0.00000   0.00000   0.00000
           t5           0.00000   0.00000   0.00230   0.00000   0.00000
                          t2        d3        d4        a3        d5
           t2           0.22295
           d3          -0.00000   0.34610
           d4          -0.00000  -0.00000   0.34268
           a3          -0.00115   0.00000  -0.00000   0.24172
           d5           0.00000  -0.00000  -0.00000   0.00000   0.34397
           a4          -0.00000   0.00000   0.00000  -0.00000  -0.00000
           t3           0.00690  -0.00000  -0.00000   0.00000   0.00000
           d6           0.00000   0.00000   0.00000  -0.00000  -0.00000
           a5          -0.00000  -0.00000  -0.00000   0.00000  -0.00000
           t4           0.00230   0.00000  -0.00000   0.00000   0.00000
           d7          -0.00000   0.00000  -0.00000  -0.00000  -0.00000
           a6           0.00000  -0.00000   0.00000  -0.00000  -0.00000
           t5           0.00230  -0.00000  -0.00000   0.00000  -0.00000
                          a4        t3        d6        a5        t4
           a4           0.23974
           t3          -0.00000   0.02070
           d6          -0.00000  -0.00000   0.34593
           a5           0.04060   0.00000   0.00000   0.23974
           t4          -0.06443   0.00690  -0.00000  -0.00001   0.22480
           d7          -0.00000  -0.00000  -0.00000  -0.00000   0.00000
           a6           0.04059   0.00000  -0.00000   0.04059   0.06443
           t5           0.06442   0.00690  -0.00000  -0.06443  -0.10896
                          d7        a6        t5
           d7           0.34306
           a6           0.00000   0.23974
           t5          -0.00000  -0.00000   0.22481
     Eigenvalues --- 1000.000001000.000001000.000001000.000001000.00000
     Eigenvalues --- 1000.000001000.000001000.000001000.000001000.00000
     Eigenvalues --- 1000.000001000.000001000.000001000.000001000.00000
     Eigenvalues --- 1000.000001000.000001000.00000
 Angle between quadratic step and forces=  90.00 degrees.
 Linear search not attempted -- first point.
 Variable       Old X    -DE/DX   Delta X   Delta X   Delta X     New X
                                 (Linear)    (Quad)   (Total)
    d1        2.91195   0.00292   0.00000   0.00000   0.00000   2.91195
    a1        1.90425   0.01035   0.00000   0.00000   0.00000   1.90425
    t1        2.09440   0.00015   0.00000   0.00000   0.00000   2.09440
    d2        2.05950   0.00310   0.00000   0.00000   0.00000   2.05950
    a2        1.92123   0.00710   0.00000   0.00000   0.00000   1.92123
    t2       -2.09427   0.00084   0.00000   0.00000   0.00000  -2.09427
    d3        2.06313   0.00179   0.00000   0.00000   0.00000   2.06313
    d4        2.06880  -0.00008   0.00000   0.00000   0.00000   2.06880
    a3        1.90425   0.01035   0.00000   0.00000   0.00000   1.90425
    d5        2.06665   0.00050   0.00000   0.00000   0.00000   2.06665
    a4        1.90432   0.01098   0.00000   0.00000   0.00000   1.90432
    t3        3.14159   0.00000   0.00000   0.00000   0.00000   3.14159
    d6        2.06340   0.00162   0.00000   0.00000   0.00000   2.06340
    a5        1.90432   0.01094   0.00000   0.00000   0.00000   1.90432
    t4        2.09440   0.00002   0.00000   0.00000   0.00000   2.09440
    d7        2.06817  -0.00011   0.00000   0.00000   0.00000   2.06817
    a6        1.90423   0.01038   0.00000   0.00000   0.00000   1.90423
    t5       -2.09440   0.00004   0.00000   0.00000   0.00000  -2.09440
         Item               Value     Threshold  Converged?
 Maximum Force            0.000000     0.000450     YES
 RMS     Force            0.000000     0.000300     YES
 Maximum Displacement     0.000000     0.001800     YES
 RMS     Displacement     0.000000     0.001200     YES
 Predicted change in Energy=-0.000000D+00
 Optimization completed.
    -- Stationary point found.
                       ----------------------------
                       !   Optimized Parameters   !
                       ! (Angstroms and Degrees)  !
 ----------------------                            ----------------------
 !      Name          Value   Derivative information (Atomic Units)     !
 ------------------------------------------------------------------------
 !       d1          1.5409   -DE/DX =    0.0029                        !
 !       a1        109.1054   -DE/DX =    0.0103                        !
 !       t1        120.0      -DE/DX =    0.0002                        !
 !       d2          1.0898   -DE/DX =    0.0031                        !
 !       a2        110.0786   -DE/DX =    0.0071                        !
 !       t2       -119.9928   -DE/DX =    0.0008                        !
 !       d3          1.0918   -DE/DX =    0.0018                        !
 !       d4          1.0948   -DE/DX =   -0.0001                        !
 !       a3        109.1053   -DE/DX =    0.0103                        !
 !       d5          1.0936   -DE/DX =    0.0005                        !
 !       a4        109.1093   -DE/DX =    0.011                         !
 !       t3        180.0      -DE/DX =    0.0                           !
 !       d6          1.0919   -DE/DX =    0.0016                        !
 !       a5        109.1094   -DE/DX =    0.0109                        !
 !       t4        120.0      -DE/DX =    0.0                           !
 !       d7          1.0944   -DE/DX =   -0.0001                        !
 !       a6        109.1043   -DE/DX =    0.0104                        !
 !       t5       -120.0      -DE/DX =    0.0                           !
 ------------------------------------------------------------------------
 GradGradGradGradGradGradGradGradGradGradGradGradGradGradGradGradGradGrad

 Leave Link  103 at Thu May 27 13:54:42 2021, MaxMem=   13107200 cpu:       0.0
 (Enter /programs/64bit/g09/g09-gfortran/bin/l9999.exe)
 1\1\GINC-MOLMOD\Force\RB3LYP\6-31+G(d,p)\C2H6\OSPITE\27-May-2021\1\\#p
  b3lyp/6-31+g(d,p) force nosym\\c2h6 molecule\\0,1\C\C,1,d1\H,1,d2,2,a
 1\H,1,d3,2,a2,3,t1,0\H,1,d4,2,a3,3,t2,0\H,2,d5,1,a4,3,t3,0\H,2,d6,1,a5
 ,6,t4,0\H,2,d7,1,a6,6,t5,0\\d1=1.54093811\a1=109.10538881\t1=120.00004
 576\d2=1.08983831\a2=110.07858638\t2=-119.99284779\d3=1.09176141\d4=1.
 09476182\a3=109.10532341\d5=1.09362441\a4=109.10926822\t3=179.99999825
 \d6=1.09190589\a5=109.10935388\t4=120.00002426\d7=1.09442871\a6=109.10
 432583\t5=-120.00001888\\Version=EM64L-G09RevA.02\HF=-79.840512\RMSD=1
 .959e-09\RMSF=4.349e-03\Dipole=0.0011296,-0.0013159,-0.0015135\Quadrup
 ole=0.3114454,0.3059506,-0.617396,-0.0051242,0.0094667,0.0149116\PG=C0
 1 [X(C2H6)]\\@


 IF I HAVE SEEN FARTHER, IT IS BY STANDING ON THE
 SHOULDERS OF GIANTS. -- SIR ISAAC NEWTON
 Job cpu time:  0 days  0 hours  0 minutes  6.8 seconds.
 File lengths (MBytes):  RWF=      5 Int=      0 D2E=      0 Chk=      1 Scr=      1
 Normal termination of Gaussian 09 at Thu May 27 13:54:42 2021.
