 Entering Gaussian System, Link 0=g09
 Input=c2h6_005.com
 Output=c2h6_005.log
 Initial command:
 /programs/64bit/g09/g09-gfortran/bin/l1.exe /data/scratch/Gau-5948.inp -scrdir=/data/scratch/
 Entering Link 1 = /programs/64bit/g09/g09-gfortran/bin/l1.exe PID=      5949.
  
 Copyright (c) 1988,1990,1992,1993,1995,1998,2003,2009, Gaussian, Inc.
                  All Rights Reserved.
  
 This is part of the Gaussian(R) 09 program.  It is based on
 the Gaussian(R) 03 system (copyright 2003, Gaussian, Inc.),
 the Gaussian(R) 98 system (copyright 1998, Gaussian, Inc.),
 the Gaussian(R) 94 system (copyright 1995, Gaussian, Inc.),
 the Gaussian 92(TM) system (copyright 1992, Gaussian, Inc.),
 the Gaussian 90(TM) system (copyright 1990, Gaussian, Inc.),
 the Gaussian 88(TM) system (copyright 1988, Gaussian, Inc.),
 the Gaussian 86(TM) system (copyright 1986, Carnegie Mellon
 University), and the Gaussian 82(TM) system (copyright 1983,
 Carnegie Mellon University). Gaussian is a federally registered
 trademark of Gaussian, Inc.
  
 This software contains proprietary and confidential information,
 including trade secrets, belonging to Gaussian, Inc.
  
 This software is provided under written license and may be
 used, copied, transmitted, or stored only in accord with that
 written license.
  
 The following legend is applicable only to US Government
 contracts under FAR:
  
                    RESTRICTED RIGHTS LEGEND
  
 Use, reproduction and disclosure by the US Government is
 subject to restrictions as set forth in subparagraphs (a)
 and (c) of the Commercial Computer Software - Restricted
 Rights clause in FAR 52.227-19.
  
 Gaussian, Inc.
 340 Quinnipiac St., Bldg. 40, Wallingford CT 06492
  
  
 ---------------------------------------------------------------
 Warning -- This program may not be used in any manner that
 competes with the business of Gaussian, Inc. or will provide
 assistance to any competitor of Gaussian, Inc.  The licensee
 of this program is prohibited from giving any competitor of
 Gaussian, Inc. access to this program.  By using this program,
 the user acknowledges that Gaussian, Inc. is engaged in the
 business of creating and licensing software in the field of
 computational chemistry and represents and warrants to the
 licensee that it is not a competitor of Gaussian, Inc. and that
 it will not use this program in any manner prohibited above.
 ---------------------------------------------------------------
  

 Cite this work as:
 Gaussian 09, Revision A.02,
 M. J. Frisch, G. W. Trucks, H. B. Schlegel, G. E. Scuseria, 
 M. A. Robb, J. R. Cheeseman, G. Scalmani, V. Barone, B. Mennucci, 
 G. A. Petersson, H. Nakatsuji, M. Caricato, X. Li, H. P. Hratchian, 
 A. F. Izmaylov, J. Bloino, G. Zheng, J. L. Sonnenberg, M. Hada, 
 M. Ehara, K. Toyota, R. Fukuda, J. Hasegawa, M. Ishida, T. Nakajima, 
 Y. Honda, O. Kitao, H. Nakai, T. Vreven, J. A. Montgomery, Jr., 
 J. E. Peralta, F. Ogliaro, M. Bearpark, J. J. Heyd, E. Brothers, 
 K. N. Kudin, V. N. Staroverov, R. Kobayashi, J. Normand, 
 K. Raghavachari, A. Rendell, J. C. Burant, S. S. Iyengar, J. Tomasi, 
 M. Cossi, N. Rega, J. M. Millam, M. Klene, J. E. Knox, J. B. Cross, 
 V. Bakken, C. Adamo, J. Jaramillo, R. Gomperts, R. E. Stratmann, 
 O. Yazyev, A. J. Austin, R. Cammi, C. Pomelli, J. W. Ochterski, 
 R. L. Martin, K. Morokuma, V. G. Zakrzewski, G. A. Voth, 
 P. Salvador, J. J. Dannenberg, S. Dapprich, A. D. Daniels, 
 O. Farkas, J. B. Foresman, J. V. Ortiz, J. Cioslowski, 
 and D. J. Fox, Gaussian, Inc., Wallingford CT, 2009.
 
 ******************************************
 Gaussian 09:  EM64L-G09RevA.02 11-Jun-2009
                26-May-2021 
 ******************************************
 %chk=c2h6_005.chk
 %mem=100MB
 --------------------------------
 #p b3lyp/6-31+g(d,p) force nosym
 --------------------------------
 1/10=7,30=1,38=1/1,3;
 2/12=2,15=1,17=6,18=5,40=1/2;
 3/5=1,6=6,7=111,11=2,16=1,25=1,30=1,71=1,74=-5/1,2,3;
 4//1;
 5/5=2,38=5/2;
 6/7=2,8=2,9=2,10=2,28=1/1;
 7/29=1,30=1/1,2,3,16;
 1/10=7,30=1/3;
 99//99;
 Leave Link    1 at Wed May 26 19:08:19 2021, MaxMem=   13107200 cpu:       0.0
 (Enter /programs/64bit/g09/g09-gfortran/bin/l101.exe)
 -------------
 c2h6 molecule
 -------------
 Symbolic Z-matrix:
 Charge =  0 Multiplicity = 1
 C1
 C2                   1    d1
 H3                   1    d2       2    a1
 H4                   1    d3       2    a2       3    t1       0
 H5                   1    d4       2    a3       3    t2       0
 H6                   2    d5       1    a4       3    t3       0
 H7                   2    d6       1    a5       6    t4       0
 H8                   2    d7       1    a6       6    t5       0
       Variables:
       Constants:
  d1                    3.44209                  
  a1                  178.98773                  
  t1                  119.99211                  
  d2                    1.13337                  
  a2                  109.99333                  
  t2                 -178.99186                  
  d3                    1.17661                  
  d4                    1.16198                  
  a3                  108.99208                  
  d5                    1.1071                   
  a4                  108.9944                   
  t3                  179.99994                  
  d6                    1.10688                  
  a5                  108.9943                   
  t4                  120.0006                   
  d7                    1.17049                  
  a6                  178.99006                  
  t5                 -120.                       
 
 NAtoms=      8 NQM=      8 NQMF=      0 NMic=      0 NMicF=      0 NTot=      8.
                    Isotopes and Nuclear Properties:
 (Nuclear quadrupole moments (NQMom) in fm**2, nuclear magnetic moments (NMagM)
  in nuclear magnetons)

  Atom         1           2           3           4           5           6           7           8
 IAtWgt=          12          12           1           1           1           1           1           1
 AtmWgt=  12.0000000  12.0000000   1.0078250   1.0078250   1.0078250   1.0078250   1.0078250   1.0078250
 NucSpn=           0           0           1           1           1           1           1           1
 AtZEff=   0.0000000   0.0000000   0.0000000   0.0000000   0.0000000   0.0000000   0.0000000   0.0000000
 NQMom=    0.0000000   0.0000000   0.0000000   0.0000000   0.0000000   0.0000000   0.0000000   0.0000000
 NMagM=    0.0000000   0.0000000   2.7928460   2.7928460   2.7928460   2.7928460   2.7928460   2.7928460
 Leave Link  101 at Wed May 26 19:08:19 2021, MaxMem=   13107200 cpu:       0.0
 (Enter /programs/64bit/g09/g09-gfortran/bin/l103.exe)

 GradGradGradGradGradGradGradGradGradGradGradGradGradGradGradGradGradGrad
 Berny optimization.
 Initialization pass.
                       ----------------------------
                       !    Initial Parameters    !
                       ! (Angstroms and Degrees)  !
 ----------------------                            ----------------------
 !      Name          Value   Derivative information (Atomic Units)     !
 ------------------------------------------------------------------------
 !       d1          3.4421   Frozen                                    !
 !       a1        178.9877   Frozen                                    !
 !       t1        119.9921   Frozen                                    !
 !       d2          1.1334   Frozen                                    !
 !       a2        109.9933   Frozen                                    !
 !       t2       -178.9919   Frozen                                    !
 !       d3          1.1766   Frozen                                    !
 !       d4          1.162    Frozen                                    !
 !       a3        108.9921   Frozen                                    !
 !       d5          1.1071   Frozen                                    !
 !       a4        108.9944   Frozen                                    !
 !       t3        179.9999   Frozen                                    !
 !       d6          1.1069   Frozen                                    !
 !       a5        108.9943   Frozen                                    !
 !       t4        120.0006   Frozen                                    !
 !       d7          1.1705   Frozen                                    !
 !       a6        178.9901   Frozen                                    !
 !       t5       -120.0      Frozen                                    !
 ------------------------------------------------------------------------
 Trust Radius=3.00D-01 FncErr=1.00D-07 GrdErr=1.00D-07
 Number of steps in this run=   2 maximum allowed number of steps=   2.
 GradGradGradGradGradGradGradGradGradGradGradGradGradGradGradGradGradGrad

 Leave Link  103 at Wed May 26 19:08:19 2021, MaxMem=   13107200 cpu:       0.0
 (Enter /programs/64bit/g09/g09-gfortran/bin/l202.exe)
                          Input orientation:                          
 ---------------------------------------------------------------------
 Center     Atomic      Atomic             Coordinates (Angstroms)
 Number     Number       Type             X           Y           Z
 ---------------------------------------------------------------------
      1          6           0        0.000000    0.000000    0.000000
      2          6           0        0.000000    0.000000    3.442090
      3          1           0        0.020023    0.000000   -1.133191
      4          1           0       -0.552718   -0.957640   -0.402296
      5          1           0       -1.098559    0.019331   -0.378153
      6          1           0       -1.046820    0.000001    3.802425
      7          1           0        0.523315   -0.906388    3.802352
      8          1           0        0.010315    0.017867    4.612395
 ---------------------------------------------------------------------
                    Distance matrix (angstroms):
                    1          2          3          4          5
     1  C    0.000000
     2  C    3.442090   0.000000
     3  H    1.133368   4.575325   0.000000
     4  H    1.176612   4.000235   1.333909   0.000000
     5  H    1.161983   3.975105   1.349697   1.119374   0.000000
     6  H    3.943890   1.107101   5.049600   4.340610   4.180942
     7  H    3.943764   1.106881   5.043255   4.340453   4.578651
     8  H    4.612441   1.170487   5.745622   5.139626   5.112257
                    6          7          8
     6  H    0.000000
     7  H    1.812970   0.000000
     8  H    1.331881   1.331760   0.000000
 Symmetry turned off by external request.
 Stoichiometry    C2H6
 Framework group  C1[X(C2H6)]
 Deg. of freedom    18
 Full point group                 C1      NOp   1
 Rotational constants (GHZ):    116.5975666      4.7176197      4.6707859
 Leave Link  202 at Wed May 26 19:08:19 2021, MaxMem=   13107200 cpu:       0.0
 (Enter /programs/64bit/g09/g09-gfortran/bin/l301.exe)
 Standard basis: 6-31+G(d,p) (6D, 7F)
 Ernie: Thresh=  0.10000D-02 Tol=  0.10000D-05 Strict=F.
 Integral buffers will be    131072 words long.
 Raffenetti 2 integral format.
 Two-electron integral symmetry is turned off.
    68 basis functions,   106 primitive gaussians,    68 cartesian basis functions
     9 alpha electrons        9 beta electrons
       nuclear repulsion energy        30.1431699008 Hartrees.
 IExCor=  402 DFT=T Ex+Corr=B3LYP ExCW=0 ScaHFX=  0.200000
 ScaDFX=  0.800000  0.720000  1.000000  0.810000 ScalE2=  1.000000  1.000000
 IRadAn=      0 IRanWt=     -1 IRanGd=            0 ICorTp=0
 NAtoms=    8 NActive=    8 NUniq=    8 SFac= 7.50D-01 NAtFMM=   80 NAOKFM=F Big=F
 Leave Link  301 at Wed May 26 19:08:19 2021, MaxMem=   13107200 cpu:       0.0
 (Enter /programs/64bit/g09/g09-gfortran/bin/l302.exe)
 NPDir=0 NMtPBC=     1 NCelOv=     1 NCel=       1 NClECP=     1 NCelD=      1
         NCelK=      1 NCelE2=     1 NClLst=     1 CellRange=     0.0.
 One-electron integrals computed using PRISM.
 NBasis=    68 RedAO= T  NBF=    68
 NBsUse=    68 1.00D-06 NBFU=    68
 Precomputing XC quadrature grid using
 IXCGrd= 2 IRadAn=           0 IRanWt=          -1 IRanGd=           0 AccXCQ= 1.00D-10.
 NRdTot=     518 NPtTot=       65392 NUsed=       69135 NTot=       69167
 NSgBfM=    68    68    68    68    68 NAtAll=     8     8.
 Leave Link  302 at Wed May 26 19:08:19 2021, MaxMem=   13107200 cpu:       0.1
 (Enter /programs/64bit/g09/g09-gfortran/bin/l303.exe)
 DipDrv:  MaxL=1.
 Leave Link  303 at Wed May 26 19:08:19 2021, MaxMem=   13107200 cpu:       0.0
 (Enter /programs/64bit/g09/g09-gfortran/bin/l401.exe)
 Harris functional with IExCor=  402 diagonalized for initial guess.
 ExpMin= 4.38D-02 ExpMax= 3.05D+03 ExpMxC= 4.57D+02 IAcc=2 IRadAn=         0 AccDes= 0.00D+00
 HarFok:  IExCor=  402 AccDes= 0.00D+00 IRadAn=         0 IDoV= 1
 ScaDFX=  1.000000  1.000000  1.000000  1.000000
 FoFCou: FMM=F IPFlag=           0 FMFlag=      100000 FMFlg1=           0
         NFxFlg=           0 DoJE=T BraDBF=F KetDBF=T FulRan=T
         Omega=  0.000000  0.000000  1.000000  0.000000  0.000000 ICntrl=     500 IOpCl=  0
         NMat0=    1 NMatS0=    1 NMatT0=    0 NMatD0=    1 NMtDS0=    0 NMtDT0=    0
         I1Cent=           4 NGrid=           0.
 Symmetry not used in FoFCou.
 Harris En= -79.4277234152181    
 Leave Link  401 at Wed May 26 19:08:20 2021, MaxMem=   13107200 cpu:       0.6
 (Enter /programs/64bit/g09/g09-gfortran/bin/l502.exe)
 Closed shell SCF:
 Requested convergence on RMS density matrix=1.00D-08 within 128 cycles.
 Requested convergence on MAX density matrix=1.00D-06.
 Requested convergence on             energy=1.00D-06.
 No special actions if energy rises.
 Using DIIS extrapolation, IDIIS=  1040.
 Two-electron integral symmetry not used.
        69050 words used for storage of precomputed grid.
 Keep R1 ints in memory in canonical form, NReq=3743435.
 IEnd=      101900 IEndB=      101900 NGot=    13107200 MDV=    10273574
 LenX=    10273574 LenY=    10268509
 Symmetry not used in FoFDir.
 MinBra= 0 MaxBra= 2 Meth= 1.
 IRaf=       0 NMat=   1 IRICut=       1 DoRegI=T DoRafI=F ISym2E= 0 JSym2E=0.

 Cycle   1  Pass 1  IDiag  1:
 E= -79.0205191869165    
 DIIS: error= 4.68D-02 at cycle   1 NSaved=   1.
 NSaved= 1 IEnMin= 1 EnMin= -79.0205191869165     IErMin= 1 ErrMin= 4.68D-02
 ErrMax= 4.68D-02 EMaxC= 1.00D-01 BMatC= 1.63D-01 BMatP= 1.63D-01
 IDIUse=3 WtCom= 5.32D-01 WtEn= 4.68D-01
 Coeff-Com:  0.100D+01
 Coeff-En:   0.100D+01
 Coeff:      0.100D+01
 Gap=    -0.438 Goal=   None    Shift=    0.000
 GapD=   -0.438 DampG=0.250 DampE=0.500 DampFc=0.2500 IDamp=-1.
 Damping current iteration by 2.50D-01
 RMSDP=5.95D-02 MaxDP=1.50D+00              OVMax= 9.95D-01

 Cycle   2  Pass 1  IDiag  1:
 E= -78.8839804664666     Delta-E=        0.136538720450 Rises=F Damp=T
 DIIS: error= 2.37D-02 at cycle   2 NSaved=   2.
 NSaved= 2 IEnMin= 1 EnMin= -79.0205191869165     IErMin= 2 ErrMin= 2.37D-02
 ErrMax= 2.37D-02 EMaxC= 1.00D-01 BMatC= 3.12D-02 BMatP= 1.63D-01
 IDIUse=3 WtCom= 7.63D-01 WtEn= 2.37D-01
 Coeff-Com:  0.106D+00 0.894D+00
 Coeff-En:   0.625D+00 0.375D+00
 Coeff:      0.229D+00 0.771D+00
 Gap=    -0.357 Goal=   None    Shift=    0.000
 RMSDP=1.73D-02 MaxDP=3.41D-01 DE= 1.37D-01 OVMax= 9.99D-01

 Cycle   3  Pass 1  IDiag  1:
 E= -79.1151975632750     Delta-E=       -0.231217096808 Rises=F Damp=F
 DIIS: error= 3.33D-02 at cycle   3 NSaved=   3.
 NSaved= 3 IEnMin= 3 EnMin= -79.1151975632750     IErMin= 2 ErrMin= 2.37D-02
 ErrMax= 3.33D-02 EMaxC= 1.00D-01 BMatC= 6.51D-02 BMatP= 3.12D-02
 IDIUse=2 WtCom= 0.00D+00 WtEn= 1.00D+00
 EnCoef did     3 forward-backward iterations
 Coeff-En:   0.826D-02 0.275D+00 0.717D+00
 Coeff:      0.826D-02 0.275D+00 0.717D+00
 Gap=    -0.052 Goal=   None    Shift=    0.000
 RMSDP=1.59D-02 MaxDP=2.77D-01 DE=-2.31D-01 OVMax= 9.88D-01

 Cycle   4  Pass 1  IDiag  1:
 E= -78.5827916174896     Delta-E=        0.532405945785 Rises=F Damp=F
 DIIS: error= 6.05D-02 at cycle   4 NSaved=   4.
 NSaved= 4 IEnMin= 3 EnMin= -79.1151975632750     IErMin= 2 ErrMin= 2.37D-02
 ErrMax= 6.05D-02 EMaxC= 1.00D-01 BMatC= 3.67D-01 BMatP= 3.12D-02
 IDIUse=2 WtCom= 0.00D+00 WtEn= 1.00D+00
 EnCoef did     9 forward-backward iterations
 Coeff-En:   0.231D-01 0.000D+00 0.648D+00 0.328D+00
 Coeff:      0.231D-01 0.000D+00 0.648D+00 0.328D+00
 Gap=     0.007 Goal=   None    Shift=    0.000
 RMSDP=1.33D-02 MaxDP=1.47D-01 DE= 5.32D-01 OVMax= 8.23D-01

 Cycle   5  Pass 1  IDiag  1:
 E= -79.2857590621866     Delta-E=       -0.702967444697 Rises=F Damp=F
 DIIS: error= 2.44D-02 at cycle   5 NSaved=   5.
 NSaved= 5 IEnMin= 5 EnMin= -79.2857590621866     IErMin= 2 ErrMin= 2.37D-02
 ErrMax= 2.44D-02 EMaxC= 1.00D-01 BMatC= 2.66D-02 BMatP= 3.12D-02
 IDIUse=3 WtCom= 7.56D-01 WtEn= 2.44D-01
 EnCoef did    12 forward-backward iterations
 Coeff-Com:  0.141D-01 0.348D+00 0.370D+00 0.409D-01 0.227D+00
 Coeff-En:   0.502D-01 0.000D+00 0.246D+00 0.000D+00 0.704D+00
 Coeff:      0.229D-01 0.263D+00 0.340D+00 0.309D-01 0.344D+00
 Gap=     0.018 Goal=   None    Shift=    0.000
 RMSDP=8.59D-03 MaxDP=9.74D-02 DE=-7.03D-01 OVMax= 5.51D-01

 Cycle   6  Pass 1  IDiag  1:
 E= -79.2585066633066     Delta-E=        0.027252398880 Rises=F Damp=F
 DIIS: error= 2.45D-02 at cycle   6 NSaved=   6.
 NSaved= 6 IEnMin= 5 EnMin= -79.2857590621866     IErMin= 2 ErrMin= 2.37D-02
 ErrMax= 2.45D-02 EMaxC= 1.00D-01 BMatC= 3.43D-02 BMatP= 2.66D-02
 IDIUse=2 WtCom= 0.00D+00 WtEn= 1.00D+00
 Coeff-En:   0.000D+00 0.000D+00 0.000D+00 0.000D+00 0.553D+00 0.447D+00
 Coeff:      0.000D+00 0.000D+00 0.000D+00 0.000D+00 0.553D+00 0.447D+00
 Gap=     0.023 Goal=   None    Shift=    0.000
 RMSDP=5.96D-03 MaxDP=1.17D-01 DE= 2.73D-02 OVMax= 3.23D-01

 Cycle   7  Pass 1  IDiag  1:
 E= -79.3400017263724     Delta-E=       -0.081495063066 Rises=F Damp=F
 DIIS: error= 8.20D-03 at cycle   7 NSaved=   7.
 NSaved= 7 IEnMin= 7 EnMin= -79.3400017263724     IErMin= 7 ErrMin= 8.20D-03
 ErrMax= 8.20D-03 EMaxC= 1.00D-01 BMatC= 6.61D-03 BMatP= 2.66D-02
 IDIUse=3 WtCom= 9.18D-01 WtEn= 8.20D-02
 Coeff-Com: -0.528D-01 0.659D-01-0.503D-01-0.123D-01 0.115D+00 0.417D+00
 Coeff-Com:  0.518D+00
 Coeff-En:   0.000D+00 0.000D+00 0.000D+00 0.000D+00 0.000D+00 0.195D+00
 Coeff-En:   0.805D+00
 Coeff:     -0.485D-01 0.605D-01-0.461D-01-0.113D-01 0.106D+00 0.398D+00
 Coeff:      0.541D+00
 Gap=     0.033 Goal=   None    Shift=    0.000
 RMSDP=1.65D-03 MaxDP=2.29D-02 DE=-8.15D-02 OVMax= 8.43D-02

 Cycle   8  Pass 1  IDiag  1:
 E= -79.3481087253932     Delta-E=       -0.008106999021 Rises=F Damp=F
 DIIS: error= 3.19D-03 at cycle   8 NSaved=   8.
 NSaved= 8 IEnMin= 8 EnMin= -79.3481087253932     IErMin= 8 ErrMin= 3.19D-03
 ErrMax= 3.19D-03 EMaxC= 1.00D-01 BMatC= 6.64D-04 BMatP= 6.61D-03
 IDIUse=3 WtCom= 9.68D-01 WtEn= 3.19D-02
 Coeff-Com:  0.345D-02 0.116D-01 0.131D-01-0.171D-02-0.195D-01-0.901D-01
 Coeff-Com:  0.153D+00 0.930D+00
 Coeff-En:   0.000D+00 0.000D+00 0.000D+00 0.000D+00 0.000D+00 0.000D+00
 Coeff-En:   0.198D+00 0.802D+00
 Coeff:      0.334D-02 0.112D-01 0.127D-01-0.165D-02-0.189D-01-0.872D-01
 Coeff:      0.155D+00 0.926D+00
 Gap=     0.037 Goal=   None    Shift=    0.000
 RMSDP=8.39D-04 MaxDP=1.58D-02 DE=-8.11D-03 OVMax= 4.28D-02

 Cycle   9  Pass 1  IDiag  1:
 E= -79.3494863587179     Delta-E=       -0.001377633325 Rises=F Damp=F
 DIIS: error= 7.82D-04 at cycle   9 NSaved=   9.
 NSaved= 9 IEnMin= 9 EnMin= -79.3494863587179     IErMin= 9 ErrMin= 7.82D-04
 ErrMax= 7.82D-04 EMaxC= 1.00D-01 BMatC= 3.19D-05 BMatP= 6.64D-04
 IDIUse=3 WtCom= 9.92D-01 WtEn= 7.82D-03
 Coeff-Com:  0.105D-01-0.296D-02 0.142D-01 0.323D-02-0.121D-01-0.885D-01
 Coeff-Com: -0.218D-01 0.329D+00 0.768D+00
 Coeff-En:   0.000D+00 0.000D+00 0.000D+00 0.000D+00 0.000D+00 0.000D+00
 Coeff-En:   0.000D+00 0.000D+00 0.100D+01
 Coeff:      0.104D-01-0.294D-02 0.141D-01 0.321D-02-0.120D-01-0.878D-01
 Coeff:     -0.216D-01 0.327D+00 0.770D+00
 Gap=     0.038 Goal=   None    Shift=    0.000
 RMSDP=3.79D-04 MaxDP=5.02D-03 DE=-1.38D-03 OVMax= 2.41D-02

 Cycle  10  Pass 1  IDiag  1:
 E= -79.3496221090681     Delta-E=       -0.000135750350 Rises=F Damp=F
 DIIS: error= 5.41D-04 at cycle  10 NSaved=  10.
 NSaved=10 IEnMin=10 EnMin= -79.3496221090681     IErMin=10 ErrMin= 5.41D-04
 ErrMax= 5.41D-04 EMaxC= 1.00D-01 BMatC= 2.09D-05 BMatP= 3.19D-05
 IDIUse=3 WtCom= 9.95D-01 WtEn= 5.41D-03
 Coeff-Com:  0.499D-02-0.686D-04 0.255D-02 0.102D-02 0.281D-04-0.342D-01
 Coeff-Com:  0.219D-01 0.754D-01-0.890D+00 0.182D+01
 Coeff-En:   0.000D+00 0.000D+00 0.000D+00 0.000D+00 0.000D+00 0.000D+00
 Coeff-En:   0.000D+00 0.000D+00 0.000D+00 0.100D+01
 Coeff:      0.496D-02-0.682D-04 0.254D-02 0.102D-02 0.280D-04-0.340D-01
 Coeff:      0.217D-01 0.750D-01-0.885D+00 0.181D+01
 Gap=     0.038 Goal=   None    Shift=    0.000
 RMSDP=5.22D-04 MaxDP=6.17D-03 DE=-1.36D-04 OVMax= 3.57D-02

 Cycle  11  Pass 1  IDiag  1:
 E= -79.3496575035805     Delta-E=       -0.000035394512 Rises=F Damp=F
 DIIS: error= 1.19D-03 at cycle  11 NSaved=  11.
 NSaved=11 IEnMin=11 EnMin= -79.3496575035805     IErMin=10 ErrMin= 5.41D-04
 ErrMax= 1.19D-03 EMaxC= 1.00D-01 BMatC= 6.55D-05 BMatP= 2.09D-05
 IDIUse=3 WtCom= 9.95D-01 WtEn= 5.41D-03
 Coeff-Com:  0.505D-02 0.163D-03 0.263D-02 0.534D-03-0.206D-03-0.404D-01
 Coeff-Com:  0.331D-01 0.808D-01-0.759D+00 0.125D+01 0.425D+00
 Coeff-En:   0.000D+00 0.000D+00 0.000D+00 0.000D+00 0.000D+00 0.000D+00
 Coeff-En:   0.000D+00 0.000D+00 0.000D+00 0.000D+00 0.100D+01
 Coeff:      0.502D-02 0.163D-03 0.262D-02 0.531D-03-0.205D-03-0.402D-01
 Coeff:      0.329D-01 0.804D-01-0.755D+00 0.125D+01 0.428D+00
 Gap=     0.038 Goal=   None    Shift=    0.000
 RMSDP=1.04D-04 MaxDP=1.31D-03 DE=-3.54D-05 OVMax= 6.53D-03

 Cycle  12  Pass 1  IDiag  1:
 E= -79.3496964119714     Delta-E=       -0.000038908391 Rises=F Damp=F
 DIIS: error= 1.07D-03 at cycle  12 NSaved=  12.
 NSaved=12 IEnMin=12 EnMin= -79.3496964119714     IErMin=10 ErrMin= 5.41D-04
 ErrMax= 1.07D-03 EMaxC= 1.00D-01 BMatC= 5.20D-05 BMatP= 2.09D-05
 IDIUse=3 WtCom= 9.95D-01 WtEn= 5.41D-03
 Coeff-Com:  0.110D-02 0.296D-02 0.287D-02-0.216D-03-0.157D-02-0.143D-01
 Coeff-Com:  0.250D-02 0.572D-01 0.334D+00-0.138D+00-0.565D+01 0.641D+01
 Coeff-En:   0.000D+00 0.000D+00 0.000D+00 0.000D+00 0.000D+00 0.000D+00
 Coeff-En:   0.000D+00 0.000D+00 0.000D+00 0.000D+00 0.000D+00 0.100D+01
 Coeff:      0.109D-02 0.294D-02 0.286D-02-0.215D-03-0.157D-02-0.142D-01
 Coeff:      0.249D-02 0.569D-01 0.332D+00-0.137D+00-0.562D+01 0.638D+01
 Gap=     0.038 Goal=   None    Shift=    0.000
 RMSDP=3.65D-04 MaxDP=4.30D-03 DE=-3.89D-05 OVMax= 2.23D-02

 Cycle  13  Pass 1  IDiag  1:
 E= -79.3498149083574     Delta-E=       -0.000118496386 Rises=F Damp=F
 DIIS: error= 2.45D-04 at cycle  13 NSaved=  13.
 NSaved=13 IEnMin=13 EnMin= -79.3498149083574     IErMin=13 ErrMin= 2.45D-04
 ErrMax= 2.45D-04 EMaxC= 1.00D-01 BMatC= 2.90D-06 BMatP= 2.09D-05
 IDIUse=3 WtCom= 9.98D-01 WtEn= 2.45D-03
 Coeff-Com:  0.142D-03-0.819D-04-0.108D-02 0.130D-04-0.491D-03 0.173D-02
 Coeff-Com: -0.162D-01-0.253D-01 0.106D+00 0.426D-02-0.282D+01 0.284D+01
 Coeff-Com:  0.911D+00
 Coeff-En:   0.000D+00 0.000D+00 0.000D+00 0.000D+00 0.000D+00 0.000D+00
 Coeff-En:   0.000D+00 0.000D+00 0.000D+00 0.000D+00 0.000D+00 0.000D+00
 Coeff-En:   0.100D+01
 Coeff:      0.142D-03-0.817D-04-0.108D-02 0.129D-04-0.490D-03 0.172D-02
 Coeff:     -0.162D-01-0.252D-01 0.106D+00 0.425D-02-0.281D+01 0.283D+01
 Coeff:      0.911D+00
 Gap=     0.038 Goal=   None    Shift=    0.000
 RMSDP=2.29D-04 MaxDP=2.93D-03 DE=-1.18D-04 OVMax= 1.47D-02

 Cycle  14  Pass 1  IDiag  1:
 E= -79.3498259099841     Delta-E=       -0.000011001627 Rises=F Damp=F
 DIIS: error= 7.81D-05 at cycle  14 NSaved=  14.
 NSaved=14 IEnMin=14 EnMin= -79.3498259099841     IErMin=14 ErrMin= 7.81D-05
 ErrMax= 7.81D-05 EMaxC= 1.00D-01 BMatC= 2.00D-07 BMatP= 2.90D-06
 IDIUse=1 WtCom= 1.00D+00 WtEn= 0.00D+00
 Coeff-Com: -0.298D-03 0.983D-04-0.448D-03-0.629D-04 0.530D-03 0.271D-02
 Coeff-Com: -0.484D-02-0.816D-02 0.182D-01 0.116D-01-0.673D+00 0.587D+00
 Coeff-Com:  0.485D+00 0.582D+00
 Coeff:     -0.298D-03 0.983D-04-0.448D-03-0.629D-04 0.530D-03 0.271D-02
 Coeff:     -0.484D-02-0.816D-02 0.182D-01 0.116D-01-0.673D+00 0.587D+00
 Coeff:      0.485D+00 0.582D+00
 Gap=     0.038 Goal=   None    Shift=    0.000
 RMSDP=1.35D-05 MaxDP=2.62D-04 DE=-1.10D-05 OVMax= 4.60D-04

 Cycle  15  Pass 1  IDiag  1:
 E= -79.3498261879652     Delta-E=       -0.000000277981 Rises=F Damp=F
 DIIS: error= 1.78D-05 at cycle  15 NSaved=  15.
 NSaved=15 IEnMin=15 EnMin= -79.3498261879652     IErMin=15 ErrMin= 1.78D-05
 ErrMax= 1.78D-05 EMaxC= 1.00D-01 BMatC= 1.21D-08 BMatP= 2.00D-07
 IDIUse=1 WtCom= 1.00D+00 WtEn= 0.00D+00
 Coeff-Com: -0.796D-04 0.104D-04 0.159D-04-0.226D-04 0.116D-03 0.139D-03
 Coeff-Com: -0.449D-05 0.182D-02-0.423D-02 0.377D-02 0.931D-01-0.123D+00
 Coeff-Com:  0.547D-01-0.999D-01 0.107D+01
 Coeff:     -0.796D-04 0.104D-04 0.159D-04-0.226D-04 0.116D-03 0.139D-03
 Coeff:     -0.449D-05 0.182D-02-0.423D-02 0.377D-02 0.931D-01-0.123D+00
 Coeff:      0.547D-01-0.999D-01 0.107D+01
 Gap=     0.038 Goal=   None    Shift=    0.000
 RMSDP=5.80D-06 MaxDP=8.43D-05 DE=-2.78D-07 OVMax= 2.85D-04

 Cycle  16  Pass 1  IDiag  1:
 E= -79.3498261995704     Delta-E=       -0.000000011605 Rises=F Damp=F
 DIIS: error= 3.71D-06 at cycle  16 NSaved=  16.
 NSaved=16 IEnMin=16 EnMin= -79.3498261995704     IErMin=16 ErrMin= 3.71D-06
 ErrMax= 3.71D-06 EMaxC= 1.00D-01 BMatC= 7.33D-10 BMatP= 1.21D-08
 IDIUse=1 WtCom= 1.00D+00 WtEn= 0.00D+00
 Coeff-Com: -0.670D-05-0.895D-06-0.777D-05-0.925D-06-0.574D-05 0.370D-04
 Coeff-Com:  0.964D-04 0.207D-03-0.236D-02-0.357D-02 0.845D-02-0.597D-02
 Coeff-Com: -0.694D-02-0.454D-01 0.171D+00 0.885D+00
 Coeff:     -0.670D-05-0.895D-06-0.777D-05-0.925D-06-0.574D-05 0.370D-04
 Coeff:      0.964D-04 0.207D-03-0.236D-02-0.357D-02 0.845D-02-0.597D-02
 Coeff:     -0.694D-02-0.454D-01 0.171D+00 0.885D+00
 Gap=     0.038 Goal=   None    Shift=    0.000
 RMSDP=6.54D-06 MaxDP=7.79D-05 DE=-1.16D-08 OVMax= 4.50D-04

 Cycle  17  Pass 1  IDiag  1:
 E= -79.3498262055281     Delta-E=       -0.000000005958 Rises=F Damp=F
 DIIS: error= 1.72D-06 at cycle  17 NSaved=  17.
 NSaved=17 IEnMin=17 EnMin= -79.3498262055281     IErMin=17 ErrMin= 1.72D-06
 ErrMax= 1.72D-06 EMaxC= 1.00D-01 BMatC= 1.01D-10 BMatP= 7.33D-10
 IDIUse=1 WtCom= 1.00D+00 WtEn= 0.00D+00
 Coeff-Com: -0.117D-05-0.679D-06-0.897D-06-0.209D-06-0.318D-05 0.709D-05
 Coeff-Com:  0.116D-04 0.116D-04 0.161D-03-0.119D-02-0.483D-02 0.678D-02
 Coeff-Com: -0.298D-02-0.213D-01-0.191D-01 0.133D+00 0.910D+00
 Coeff:     -0.117D-05-0.679D-06-0.897D-06-0.209D-06-0.318D-05 0.709D-05
 Coeff:      0.116D-04 0.116D-04 0.161D-03-0.119D-02-0.483D-02 0.678D-02
 Coeff:     -0.298D-02-0.213D-01-0.191D-01 0.133D+00 0.910D+00
 Gap=     0.038 Goal=   None    Shift=    0.000
 RMSDP=3.02D-07 MaxDP=4.40D-06 DE=-5.96D-09 OVMax= 1.37D-05

 Cycle  18  Pass 1  IDiag  1:
 E= -79.3498262056404     Delta-E=       -0.000000000112 Rises=F Damp=F
 DIIS: error= 7.62D-07 at cycle  18 NSaved=  18.
 NSaved=18 IEnMin=18 EnMin= -79.3498262056404     IErMin=18 ErrMin= 7.62D-07
 ErrMax= 7.62D-07 EMaxC= 1.00D-01 BMatC= 2.45D-11 BMatP= 1.01D-10
 IDIUse=1 WtCom= 1.00D+00 WtEn= 0.00D+00
 Coeff-Com: -0.858D-06 0.145D-06-0.584D-06-0.217D-06 0.155D-05 0.303D-05
 Coeff-Com: -0.374D-05-0.207D-04 0.564D-05-0.139D-03-0.261D-02 0.376D-02
 Coeff-Com: -0.630D-03-0.579D-02-0.168D-01-0.345D-02 0.196D+00 0.829D+00
 Coeff:     -0.858D-06 0.145D-06-0.584D-06-0.217D-06 0.155D-05 0.303D-05
 Coeff:     -0.374D-05-0.207D-04 0.564D-05-0.139D-03-0.261D-02 0.376D-02
 Coeff:     -0.630D-03-0.579D-02-0.168D-01-0.345D-02 0.196D+00 0.829D+00
 Gap=     0.038 Goal=   None    Shift=    0.000
 RMSDP=1.41D-07 MaxDP=3.40D-06 DE=-1.12D-10 OVMax= 8.06D-06

 Cycle  19  Pass 1  IDiag  1:
 E= -79.3498262056857     Delta-E=       -0.000000000045 Rises=F Damp=F
 DIIS: error= 1.41D-07 at cycle  19 NSaved=  19.
 NSaved=19 IEnMin=19 EnMin= -79.3498262056857     IErMin=19 ErrMin= 1.41D-07
 ErrMax= 1.41D-07 EMaxC= 1.00D-01 BMatC= 1.19D-12 BMatP= 2.45D-11
 IDIUse=1 WtCom= 1.00D+00 WtEn= 0.00D+00
 Coeff-Com:  0.210D-07-0.761D-07-0.216D-06-0.107D-07-0.272D-07 0.452D-06
 Coeff-Com: -0.157D-05-0.511D-05 0.102D-04 0.767D-05-0.487D-03 0.570D-03
 Coeff-Com:  0.371D-04-0.954D-03-0.168D-02 0.257D-02-0.955D-02 0.227D+00
 Coeff-Com:  0.783D+00
 Coeff:      0.210D-07-0.761D-07-0.216D-06-0.107D-07-0.272D-07 0.452D-06
 Coeff:     -0.157D-05-0.511D-05 0.102D-04 0.767D-05-0.487D-03 0.570D-03
 Coeff:      0.371D-04-0.954D-03-0.168D-02 0.257D-02-0.955D-02 0.227D+00
 Coeff:      0.783D+00
 Gap=     0.038 Goal=   None    Shift=    0.000
 RMSDP=2.68D-08 MaxDP=2.65D-07 DE=-4.53D-11 OVMax= 1.58D-06

 Cycle  20  Pass 1  IDiag  1:
 E= -79.3498262056875     Delta-E=       -0.000000000002 Rises=F Damp=F
 DIIS: error= 1.81D-08 at cycle  20 NSaved=  20.
 NSaved=20 IEnMin=20 EnMin= -79.3498262056875     IErMin=20 ErrMin= 1.81D-08
 ErrMax= 1.81D-08 EMaxC= 1.00D-01 BMatC= 1.27D-14 BMatP= 1.19D-12
 IDIUse=1 WtCom= 1.00D+00 WtEn= 0.00D+00
 Large coefficients: NSaved= 20 BigCof=    0.00 CofMax=   10.00 Det=-4.65D-15
 Inversion failed.  Reducing to 19 matrices.
 Large coefficients: NSaved= 19 BigCof=    0.00 CofMax=   10.00 Det=-4.65D-15
 Inversion failed.  Reducing to 18 matrices.
 Large coefficients: NSaved= 18 BigCof=    0.00 CofMax=   10.00 Det=-4.77D-15
 Inversion failed.  Reducing to 17 matrices.
 Large coefficients: NSaved= 17 BigCof=    0.00 CofMax=   10.00 Det=-4.83D-15
 Inversion failed.  Reducing to 16 matrices.
 Large coefficients: NSaved= 16 BigCof=    0.00 CofMax=   10.00 Det=-5.15D-15
 Inversion failed.  Reducing to 15 matrices.
 Coeff-Com: -0.165D-07 0.220D-06 0.681D-06-0.365D-05-0.644D-05 0.768D-06
 Coeff-Com:  0.327D-05 0.576D-05-0.374D-04 0.444D-03 0.101D-02-0.659D-02
 Coeff-Com: -0.943D-02 0.339D-01 0.981D+00
 Coeff:     -0.165D-07 0.220D-06 0.681D-06-0.365D-05-0.644D-05 0.768D-06
 Coeff:      0.327D-05 0.576D-05-0.374D-04 0.444D-03 0.101D-02-0.659D-02
 Coeff:     -0.943D-02 0.339D-01 0.981D+00
 Gap=     0.038 Goal=   None    Shift=    0.000
 RMSDP=2.32D-09 MaxDP=5.81D-08 DE=-1.76D-12 OVMax= 1.11D-07

 SCF Done:  E(RB3LYP) =  -79.3498262057     A.U. after   20 cycles
             Convg  =    0.2317D-08             -V/T =  2.0114
 KE= 7.845348300155D+01 PE=-2.426722771502D+02 EE= 5.472579804220D+01
 Leave Link  502 at Wed May 26 19:08:31 2021, MaxMem=   13107200 cpu:      10.6
 (Enter /programs/64bit/g09/g09-gfortran/bin/l601.exe)
 Copying SCF densities to generalized density rwf, IOpCl= 0 IROHF=0.

 **********************************************************************

            Population analysis using the SCF density.

 **********************************************************************

 Alpha  occ. eigenvalues --  -10.27775 -10.22261  -0.75429  -0.72146  -0.45470
 Alpha  occ. eigenvalues --   -0.34611  -0.33345  -0.28204  -0.27215
 Alpha virt. eigenvalues --   -0.23462  -0.01126   0.01358   0.05289   0.06309
 Alpha virt. eigenvalues --    0.07566   0.08915   0.09348   0.11137   0.12782
 Alpha virt. eigenvalues --    0.14847   0.16525   0.19970   0.21928   0.22934
 Alpha virt. eigenvalues --    0.58651   0.61257   0.63581   0.68051   0.69435
 Alpha virt. eigenvalues --    0.78760   0.81996   0.85278   0.87237   0.88942
 Alpha virt. eigenvalues --    0.93395   0.97955   1.03697   1.06040   1.26143
 Alpha virt. eigenvalues --    1.33458   1.34333   1.44292   1.70419   1.74387
 Alpha virt. eigenvalues --    1.81645   1.84740   1.86036   1.91057   2.13371
 Alpha virt. eigenvalues --    2.16029   2.31854   2.32935   2.36199   2.44394
 Alpha virt. eigenvalues --    2.46877   2.56630   2.60745   2.70099   2.72140
 Alpha virt. eigenvalues --    2.99016   2.99686   3.01533   3.27091   3.30262
 Alpha virt. eigenvalues --    3.31929   3.32586   4.24473   4.32811
          Condensed to atoms (all electrons):
              1          2          3          4          5          6
     1  C    5.535429   0.036718   0.337231   0.227607   0.246054  -0.010550
     2  C    0.036718   5.323571   0.000025   0.001635   0.000260   0.372131
     3  H    0.337231   0.000025   0.695164  -0.073107  -0.076442   0.000023
     4  H    0.227607   0.001635  -0.073107   0.865574  -0.076618   0.000058
     5  H    0.246054   0.000260  -0.076442  -0.076618   0.842261   0.000113
     6  H   -0.010550   0.372131   0.000023   0.000058   0.000113   0.564425
     7  H   -0.011057   0.372110   0.000022   0.000047   0.000054  -0.039651
     8  H    0.006031   0.210319  -0.000001  -0.000002  -0.000002  -0.061926
              7          8
     1  C   -0.011057   0.006031
     2  C    0.372110   0.210319
     3  H    0.000022  -0.000001
     4  H    0.000047  -0.000002
     5  H    0.000054  -0.000002
     6  H   -0.039651  -0.061926
     7  H    0.564074  -0.061861
     8  H   -0.061861   0.811064
 Mulliken atomic charges:
              1
     1  C   -0.367463
     2  C   -0.316768
     3  H    0.117085
     4  H    0.054807
     5  H    0.064321
     6  H    0.175377
     7  H    0.176263
     8  H    0.096378
 Sum of Mulliken atomic charges =  -0.00000
 Mulliken charges with hydrogens summed into heavy atoms:
              1
     1  C   -0.131250
     2  C    0.131250
 Sum of Mulliken charges with hydrogens summed into heavy atoms =  -0.00000
 Electronic spatial extent (au):  <R**2>=            480.3402
 Charge=              0.0000 electrons
 Dipole moment (field-independent basis, Debye):
    X=             -1.1442    Y=             -1.0540    Z=              2.6852  Tot=              3.1033
 Quadrupole moment (field-independent basis, Debye-Ang):
   XX=            -16.6603   YY=            -18.3294   ZZ=              1.2724
   XY=              0.3798   XZ=             -0.4984   YZ=             -2.0396
 Traceless Quadrupole moment (field-independent basis, Debye-Ang):
   XX=             -5.4212   YY=             -7.0903   ZZ=             12.5115
   XY=              0.3798   XZ=             -0.4984   YZ=             -2.0396
 Octapole moment (field-independent basis, Debye-Ang**2):
  XXX=              3.5492  YYY=              3.5602  ZZZ=             -6.7097  XYY=              1.8718
  XXY=              0.4689  XXZ=            -25.3009  XZZ=             -6.1498  YZZ=            -11.2416
  YYZ=            -26.9202  XYZ=             -2.0390
 Hexadecapole moment (field-independent basis, Debye-Ang**3):
 XXXX=            -35.8332 YYYY=            -35.2843 ZZZZ=           -339.2197 XXXY=              0.3957
 XXXZ=             -0.5898 YYYX=             -0.2620 YYYZ=              2.6608 ZZZX=            -29.5287
 ZZZY=            -50.5350 XXYY=            -11.8359 XXZZ=           -104.3613 YYZZ=           -112.2409
 XXYZ=              1.0740 YYXZ=              2.3059 ZZXY=             -6.8057
 N-N= 3.014316990078D+01 E-N=-2.426722771891D+02  KE= 7.845348300155D+01
 No NMR shielding tensors so no spin-rotation constants.
 Leave Link  601 at Wed May 26 19:08:31 2021, MaxMem=   13107200 cpu:       0.1
 (Enter /programs/64bit/g09/g09-gfortran/bin/l701.exe)
 Compute integral first derivatives.
 ... and contract with generalized density number  0.
 Leave Link  701 at Wed May 26 19:08:31 2021, MaxMem=   13107200 cpu:       0.1
 (Enter /programs/64bit/g09/g09-gfortran/bin/l702.exe)
 L702 exits ... SP integral derivatives will be done elsewhere.
 Leave Link  702 at Wed May 26 19:08:31 2021, MaxMem=   13107200 cpu:       0.0
 (Enter /programs/64bit/g09/g09-gfortran/bin/l703.exe)
 Compute integral first derivatives, UseDBF=F ICtDFT=           0.
 Integral derivatives from FoFDir, PRISM(SPDF).
 Calling FoFJK, ICntrl=      2127 FMM=F ISym2X=0 I1Cent= 0 IOpClX= 0 NMat=1 NMatS=1 NMatT=0.
 FoFCou: FMM=F IPFlag=           0 FMFlag=      100000 FMFlg1=         800
         NFxFlg=           0 DoJE=F BraDBF=F KetDBF=F FulRan=T
         Omega=  0.000000  0.000000  1.000000  0.000000  0.000000 ICntrl=    2127 IOpCl=  0
         NMat0=    1 NMatS0=    1 NMatT0=    0 NMatD0=    1 NMtDS0=    0 NMtDT0=    0
         I1Cent=           0 NGrid=           0.
 Symmetry not used in FoFCou.
 Leave Link  703 at Wed May 26 19:08:32 2021, MaxMem=   13107200 cpu:       1.3
 (Enter /programs/64bit/g09/g09-gfortran/bin/l716.exe)
 Dipole        =-4.50176577D-01-4.14691026D-01 1.05642607D+00
 -------------------------------------------------------------------
 Center     Atomic                   Forces (Hartrees/Bohr)
 Number     Number              X              Y              Z
 -------------------------------------------------------------------
      1        6          -0.100611825   -0.054247202   -0.103018423
      2        6          -0.030612337   -0.054663401    0.089753891
      3        1           0.078161119    0.041898890    0.001156369
      4        1           0.043652847   -0.046268104    0.056371499
      5        1          -0.019893942    0.062012673    0.059867943
      6        1          -0.017644753    0.012000836   -0.051742143
      7        1           0.018799346   -0.009474818   -0.051610651
      8        1           0.028149546    0.048741127   -0.000778486
 -------------------------------------------------------------------
 Cartesian Forces:  Max     0.103018423 RMS     0.053222407
 -----------------------------------------------------------------------------------------------
                       Internal Coordinate Forces (Hartree/Bohr or radian)
  Cent   Atom   N1       Length/X         N2         Alpha/Y        N3         Beta/Z          J
 -----------------------------------------------------------------------------------------------
      1  C 
      2  C        1  -0.014377(     1)
      3  H        1   0.000225(     2)      2  -0.167420(     8)
      4  H        1  -0.002123(     3)      2  -0.131662(     9)      3  -0.127324(    14)     0
      5  H        1   0.000356(     4)      2  -0.139297(    10)      3   0.128010(    15)     0
      6  H        2  -0.000157(     5)      1  -0.114371(    11)      3  -0.000910(    16)     0
      7  H        2  -0.000151(     6)      1  -0.114062(    12)      6   0.022830(    17)     0
      8  H        2   0.000214(     7)      1  -0.124510(    13)      6  -0.000000(    18)     0
 -----------------------------------------------------------------------------------------------
 Internal  Forces:  Max     0.167419592 RMS     0.088094925
 Force constants in Cartesian coordinates: 
                1             2             3             4             5 
      1  0.849577D+00
      2 -0.716468D+00  0.961100D+01
      3  0.134164D+00  0.777316D-01  0.497045D+00
      4 -0.156923D+01  0.320061D+01  0.156127D-01  0.659472D+01
      5  0.102035D+01 -0.408872D+01  0.890430D-02 -0.416940D+01  0.364144D+01
      6 -0.542260D-02 -0.939617D-02 -0.108929D-01 -0.713329D-01 -0.123663D+00
      7 -0.928045D-01 -0.560996D-03 -0.446463D-01  0.138679D-01 -0.136174D-02
      8  0.456306D+00 -0.671583D+01 -0.270069D-01 -0.178132D+01  0.261842D+01
      9  0.370446D-02 -0.991238D-05 -0.303249D+00  0.245035D-03 -0.240609D-04
     10 -0.892977D-01 -0.106683D+00 -0.414179D-01 -0.244741D-01  0.163284D-01
     11 -0.815435D-01 -0.170877D+00 -0.490710D-01  0.163192D-01 -0.562600D-02
     12 -0.466633D-01 -0.763951D-01 -0.908293D-01 -0.522172D-02 -0.904144D-02
     13 -0.245744D+00  0.473320D-02 -0.637122D-01  0.423261D-02 -0.325985D-03
     14 -0.293984D-01 -0.335956D-01 -0.105580D-01  0.324726D-01 -0.153717D-01
     15 -0.912050D-01 -0.132655D-02 -0.920735D-01 -0.106360D-01  0.161197D-03
     16  0.383132D-02 -0.114984D-05  0.000000D+00 -0.290593D+00  0.677626D-02
     17 -0.533143D-03 -0.363544D-01  0.000000D+00 -0.213433D-01 -0.532744D-01
     18  0.111305D-01 -0.323427D-05  0.000000D+00  0.111838D+00  0.196851D-01
     19  0.408679D-02  0.344493D-01  0.000000D+00 -0.113907D+00  0.720844D-01
     20  0.145957D-03  0.237212D-01  0.000000D+00  0.108913D+00 -0.245274D+00
     21 -0.556924D-02  0.963955D-02  0.000000D+00 -0.389002D-01  0.106757D+00
     22  0.113958D+01 -0.241608D+01  0.000000D+00 -0.461462D+01  0.305555D+01
     23 -0.648855D+00  0.141066D+01  0.000000D+00  0.261375D+01 -0.185160D+01
     24 -0.138647D-03 -0.240143D-03  0.000000D+00 -0.160455D-02 -0.277922D-02
                6             7             8             9            10 
      6  0.513824D+00
      7  0.000000D+00  0.861206D-01
      8  0.000000D+00  0.105382D-01  0.485800D+01
      9  0.000000D+00 -0.382256D-02  0.186202D-03  0.302393D+00
     10  0.000000D+00  0.393486D-02 -0.951065D-02  0.695260D-04  0.904165D-01
     11  0.000000D+00 -0.905366D-02 -0.597860D-02 -0.159971D-03  0.853346D-01
     12  0.000000D+00  0.161455D-01  0.272984D-01  0.285279D-03  0.361017D-01
     13  0.000000D+00 -0.111188D-01  0.333520D-03 -0.196461D-03 -0.133944D-02
     14  0.000000D+00  0.438193D-03  0.960761D-02  0.774255D-05  0.265165D-01
     15  0.000000D+00  0.323233D-01 -0.477748D-03  0.571129D-03  0.524671D-02
     16  0.732045D-01  0.000000D+00  0.000000D+00  0.000000D+00  0.000000D+00
     17  0.292741D-01  0.000000D+00  0.307282D-01  0.000000D+00  0.481932D-03
     18 -0.116420D+00  0.000000D+00  0.000000D+00  0.000000D+00  0.000000D+00
     19 -0.112770D-01  0.000000D+00 -0.266165D-01  0.000000D+00 -0.417446D-03
     20  0.780907D-01  0.000000D+00 -0.153674D-01  0.000000D+00 -0.241018D-03
     21 -0.116474D+00  0.000000D+00  0.000000D+00  0.000000D+00  0.000000D+00
     22  0.148280D-01  0.000000D+00  0.135027D+01  0.000000D+00  0.211773D-01
     23  0.256944D-01  0.000000D+00 -0.779583D+00  0.000000D+00 -0.122268D-01
     24 -0.270037D+00  0.000000D+00  0.000000D+00  0.000000D+00  0.000000D+00
               11            12            13            14            15 
     11  0.193104D+00
     12  0.528155D-01  0.892197D-01
     13  0.925232D-03 -0.362187D-03  0.254394D+00
     14 -0.175404D-01  0.532262D-02 -0.591100D-02  0.429755D-01
     15 -0.358454D-02  0.132427D-02  0.642709D-01  0.522764D-02  0.901781D-01
     16  0.000000D+00  0.000000D+00  0.000000D+00  0.000000D+00  0.000000D+00
     17 -0.278155D-03  0.000000D+00 -0.985240D-05 -0.559887D-03  0.000000D+00
     18  0.000000D+00  0.000000D+00  0.000000D+00  0.000000D+00  0.000000D+00
     19  0.240936D-03  0.000000D+00  0.853408D-05  0.484970D-03  0.000000D+00
     20  0.139107D-03  0.000000D+00  0.492726D-05  0.280004D-03  0.000000D+00
     21  0.000000D+00  0.000000D+00  0.000000D+00  0.000000D+00  0.000000D+00
     22 -0.122228D-01  0.000000D+00 -0.432939D-03 -0.246028D-01  0.000000D+00
     23  0.705687D-02  0.000000D+00  0.249958D-03  0.142045D-01  0.000000D+00
     24  0.000000D+00  0.000000D+00  0.000000D+00  0.000000D+00  0.000000D+00
               16            17            18            19            20 
     16  0.302914D+00
     17 -0.493100D-02  0.401972D-01
     18 -0.760436D-01 -0.143244D-01  0.108172D+00
     19 -0.488437D-02  0.269336D-01 -0.141898D-01  0.110216D+00
     20 -0.173175D-02  0.966622D-02 -0.503099D-02 -0.116313D+00  0.233126D+00
     21  0.273809D-02 -0.148043D-01  0.795456D-02  0.256434D-01 -0.730745D-01
     22 -0.112679D-01 -0.598236D-03 -0.327348D-01  0.489797D-02  0.922240D-02
     23 -0.112397D-03  0.987522D-02 -0.326557D-03  0.873646D-02 -0.629090D-02
     24  0.101035D-03 -0.145490D-03  0.293520D-03 -0.176550D-03  0.147529D-04
               21            22            23            24 
     21  0.108226D+00
     22  0.160880D-01  0.346067D+01
     23 -0.285180D-01 -0.196155D+01  0.119568D+01
     24  0.293574D-03  0.181871D-02  0.315010D-02  0.269450D+00
 Force constants in internal coordinates: 
                1             2             3             4             5 
      1  0.108929D-01
      2  0.000000D+00  0.302460D+00
      3  0.000000D+00  0.000000D+00  0.264544D+00
      4  0.000000D+00  0.000000D+00  0.000000D+00  0.276622D+00
      5  0.000000D+00  0.000000D+00  0.000000D+00  0.000000D+00  0.329089D+00
      6  0.000000D+00  0.000000D+00  0.000000D+00  0.000000D+00  0.000000D+00
      7  0.000000D+00  0.000000D+00  0.000000D+00  0.000000D+00  0.000000D+00
      8  0.000000D+00  0.000000D+00  0.000000D+00  0.000000D+00  0.000000D+00
      9  0.000000D+00  0.000000D+00  0.000000D+00  0.000000D+00  0.000000D+00
     10  0.000000D+00  0.000000D+00  0.000000D+00  0.000000D+00  0.000000D+00
     11  0.000000D+00  0.000000D+00  0.000000D+00  0.000000D+00  0.000000D+00
     12  0.000000D+00  0.000000D+00  0.000000D+00  0.000000D+00  0.000000D+00
     13  0.000000D+00  0.000000D+00  0.000000D+00  0.000000D+00  0.000000D+00
     14  0.000000D+00  0.000000D+00  0.000000D+00  0.000000D+00  0.000000D+00
     15  0.000000D+00  0.000000D+00  0.000000D+00  0.000000D+00  0.000000D+00
     16  0.000000D+00  0.000000D+00  0.000000D+00  0.000000D+00  0.000000D+00
     17  0.000000D+00  0.000000D+00  0.000000D+00  0.000000D+00  0.000000D+00
     18  0.000000D+00  0.000000D+00  0.000000D+00  0.000000D+00  0.000000D+00
                6             7             8             9            10 
      6  0.329325D+00
      7  0.000000D+00  0.269514D+00
      8  0.000000D+00  0.000000D+00  0.394735D+00
      9  0.000000D+00  0.000000D+00  0.818309D-01  0.326345D+00
     10  0.000000D+00  0.000000D+00  0.160791D+00  0.727635D-02  0.328321D+00
     11  0.000000D+00  0.000000D+00  0.000000D+00  0.000000D+00  0.000000D+00
     12  0.000000D+00  0.000000D+00  0.000000D+00  0.000000D+00  0.000000D+00
     13  0.000000D+00  0.000000D+00  0.000000D+00  0.000000D+00  0.000000D+00
     14  0.000000D+00  0.000000D+00  0.355099D-01  0.240570D-01  0.307439D-01
     15  0.000000D+00  0.000000D+00 -0.107853D-02 -0.261129D-01 -0.306544D-01
     16  0.000000D+00  0.000000D+00  0.000000D+00  0.000000D+00  0.000000D+00
     17  0.000000D+00  0.000000D+00  0.000000D+00  0.000000D+00  0.000000D+00
     18  0.000000D+00  0.000000D+00  0.000000D+00  0.000000D+00  0.000000D+00
               11            12            13            14            15 
     11  0.358896D+00
     12  0.389343D-01  0.358896D+00
     13  0.814993D-01  0.814979D-01  0.308781D+00
     14  0.000000D+00  0.000000D+00  0.000000D+00  0.184180D+00
     15  0.000000D+00  0.000000D+00  0.000000D+00 -0.137528D+00  0.184653D+00
     16  0.344247D-03 -0.344295D-03  0.000000D+00  0.690000D-02  0.690000D-02
     17 -0.647846D-01 -0.626975D-01 -0.361178D-01  0.230000D-02  0.230000D-02
     18  0.243136D-02 -0.243137D-02  0.000000D+00  0.230000D-02  0.230000D-02
               16            17            18 
     16  0.995661D-01
     17  0.467131D-01  0.157303D+00
     18  0.613992D-02 -0.420757D-03  0.698144D-02
 Leave Link  716 at Wed May 26 19:08:32 2021, MaxMem=   13107200 cpu:       0.0
 (Enter /programs/64bit/g09/g09-gfortran/bin/l103.exe)

 GradGradGradGradGradGradGradGradGradGradGradGradGradGradGradGradGradGrad
 Berny optimization.
 Search for a local minimum.
 Step number   1 out of a maximum of    2
 All quantities printed in internal units (Hartrees-Bohrs-Radians)
 Second derivative matrix not updated -- first step.
 The second derivative matrix:
                          d1        a1        t1        d2        a2
           d1           0.01089
           a1           0.00000   0.39473
           t1           0.00000   0.03551   0.18418
           d2           0.00000  -0.00000  -0.00000   0.30246
           a2          -0.00000   0.08183   0.02406  -0.00000   0.32635
           t2           0.00000  -0.00108  -0.13753   0.00000  -0.02611
           d3           0.00000   0.00000   0.00000   0.00000   0.00000
           d4           0.00000  -0.00000  -0.00000   0.00000  -0.00000
           a3          -0.00000   0.16079   0.03074  -0.00000   0.00728
           d5           0.00000   0.00000  -0.00000   0.00000   0.00000
           a4          -0.00000   0.00000   0.00000   0.00000  -0.00000
           t3          -0.00000   0.00000   0.00690   0.00000  -0.00000
           d6           0.00000   0.00000   0.00000   0.00000  -0.00000
           a5           0.00000   0.00000  -0.00000   0.00000   0.00000
           t4          -0.00000   0.00000   0.00230   0.00000   0.00000
           d7           0.00000   0.00000  -0.00000   0.00000   0.00000
           a6           0.00000   0.00000   0.00000   0.00000  -0.00000
           t5          -0.00000   0.00000   0.00230   0.00000   0.00000
                          t2        d3        d4        a3        d5
           t2           0.18465
           d3          -0.00000   0.26454
           d4           0.00000   0.00000   0.27662
           a3          -0.03065   0.00000  -0.00000   0.32832
           d5          -0.00000   0.00000   0.00000   0.00000   0.32909
           a4           0.00000  -0.00000   0.00000  -0.00000  -0.00000
           t3           0.00690  -0.00000  -0.00000   0.00000   0.00000
           d6          -0.00000   0.00000  -0.00000   0.00000   0.00000
           a5           0.00000  -0.00000   0.00000  -0.00000   0.00000
           t4           0.00230  -0.00000  -0.00000   0.00000  -0.00000
           d7          -0.00000   0.00000   0.00000  -0.00000  -0.00000
           a6           0.00000   0.00000  -0.00000   0.00000  -0.00000
           t5           0.00230  -0.00000   0.00000  -0.00000  -0.00000
                          a4        t3        d6        a5        t4
           a4           0.35890
           t3           0.00034   0.09957
           d6          -0.00000  -0.00000   0.32933
           a5           0.03893  -0.00034  -0.00000   0.35890
           t4          -0.06478   0.04671  -0.00000  -0.06270   0.15730
           d7          -0.00000  -0.00000   0.00000  -0.00000   0.00000
           a6           0.08150  -0.00000  -0.00000   0.08150  -0.03612
           t5           0.00243   0.00614   0.00000  -0.00243  -0.00042
                          d7        a6        t5
           d7           0.26951
           a6          -0.00000   0.30878
           t5          -0.00000   0.00000   0.00698
     Eigenvalues --- 1000.000001000.000001000.000001000.000001000.00000
     Eigenvalues --- 1000.000001000.000001000.000001000.000001000.00000
     Eigenvalues --- 1000.000001000.000001000.000001000.000001000.00000
     Eigenvalues --- 1000.000001000.000001000.00000
 Angle between quadratic step and forces=  90.00 degrees.
 Linear search not attempted -- first point.
 Variable       Old X    -DE/DX   Delta X   Delta X   Delta X     New X
                                 (Linear)    (Quad)   (Total)
    d1        6.50461  -0.01438   0.00000   0.00000   0.00000   6.50461
    a1        3.12393  -0.16742   0.00000   0.00000   0.00000   3.12393
    t1        2.09426  -0.12732   0.00000   0.00000   0.00000   2.09426
    d2        2.14175   0.00022   0.00000   0.00000   0.00000   2.14175
    a2        1.91975  -0.13166   0.00000   0.00000   0.00000   1.91975
    t2       -3.12400   0.12801   0.00000   0.00000   0.00000  -3.12400
    d3        2.22347  -0.00212   0.00000   0.00000   0.00000   2.22347
    d4        2.19583   0.00036   0.00000   0.00000   0.00000   2.19583
    a3        1.90227  -0.13930   0.00000   0.00000   0.00000   1.90227
    d5        2.09212  -0.00016   0.00000   0.00000   0.00000   2.09212
    a4        1.90231  -0.11437   0.00000   0.00000   0.00000   1.90231
    t3        3.14159  -0.00091   0.00000   0.00000   0.00000   3.14159
    d6        2.09170  -0.00015   0.00000   0.00000   0.00000   2.09170
    a5        1.90231  -0.11406   0.00000   0.00000   0.00000   1.90231
    t4        2.09441   0.02283   0.00000   0.00000   0.00000   2.09441
    d7        2.21190   0.00021   0.00000   0.00000   0.00000   2.21190
    a6        3.12397  -0.12451   0.00000   0.00000   0.00000   3.12397
    t5       -2.09440  -0.00000   0.00000   0.00000   0.00000  -2.09440
         Item               Value     Threshold  Converged?
 Maximum Force            0.000000     0.000450     YES
 RMS     Force            0.000000     0.000300     YES
 Maximum Displacement     0.000000     0.001800     YES
 RMS     Displacement     0.000000     0.001200     YES
 Predicted change in Energy=-0.000000D+00
 Optimization completed.
    -- Stationary point found.
                       ----------------------------
                       !   Optimized Parameters   !
                       ! (Angstroms and Degrees)  !
 ----------------------                            ----------------------
 !      Name          Value   Derivative information (Atomic Units)     !
 ------------------------------------------------------------------------
 !       d1          3.4421   -DE/DX =   -0.0144                        !
 !       a1        178.9877   -DE/DX =   -0.1674                        !
 !       t1        119.9921   -DE/DX =   -0.1273                        !
 !       d2          1.1334   -DE/DX =    0.0002                        !
 !       a2        109.9933   -DE/DX =   -0.1317                        !
 !       t2       -178.9919   -DE/DX =    0.128                         !
 !       d3          1.1766   -DE/DX =   -0.0021                        !
 !       d4          1.162    -DE/DX =    0.0004                        !
 !       a3        108.9921   -DE/DX =   -0.1393                        !
 !       d5          1.1071   -DE/DX =   -0.0002                        !
 !       a4        108.9944   -DE/DX =   -0.1144                        !
 !       t3        179.9999   -DE/DX =   -0.0009                        !
 !       d6          1.1069   -DE/DX =   -0.0002                        !
 !       a5        108.9943   -DE/DX =   -0.1141                        !
 !       t4        120.0006   -DE/DX =    0.0228                        !
 !       d7          1.1705   -DE/DX =    0.0002                        !
 !       a6        178.9901   -DE/DX =   -0.1245                        !
 !       t5       -120.0      -DE/DX =    0.0                           !
 ------------------------------------------------------------------------
 GradGradGradGradGradGradGradGradGradGradGradGradGradGradGradGradGradGrad

 Leave Link  103 at Wed May 26 19:08:32 2021, MaxMem=   13107200 cpu:       0.0
 (Enter /programs/64bit/g09/g09-gfortran/bin/l9999.exe)
 1\1\GINC-MOLMOD\Force\RB3LYP\6-31+G(d,p)\C2H6\OSPITE\26-May-2021\1\\#p
  b3lyp/6-31+g(d,p) force nosym\\c2h6 molecule\\0,1\C\C,1,d1\H,1,d2,2,a
 1\H,1,d3,2,a2,3,t1,0\H,1,d4,2,a3,3,t2,0\H,2,d5,1,a4,3,t3,0\H,2,d6,1,a5
 ,6,t4,0\H,2,d7,1,a6,6,t5,0\\d1=3.44209048\a1=178.98773208\t1=119.99210
 588\d2=1.13336791\a2=109.9933311\t2=-178.99186328\d3=1.17661152\d4=1.1
 6198295\a3=108.99207621\d5=1.10710074\a4=108.99439749\t3=179.9999424\d
 6=1.1068807\a5=108.99430499\t4=120.0005969\d7=1.17048671\a6=178.990058
 6\t5=-119.99999825\\Version=EM64L-G09RevA.02\HF=-79.3498262\RMSD=2.317
 e-09\RMSF=5.322e-02\Dipole=-0.4501766,-0.414691,1.0564261\Quadrupole=-
 4.0305372,-5.2714606,9.3019978,0.2823358,-0.3705486,-1.5164017\PG=C01 
 [X(C2H6)]\\@


 THE WORLD IS NOT A HAMBURGER - YOU CAN'T HAVE IT YOUR WAY.
 Job cpu time:  0 days  0 hours  0 minutes 12.9 seconds.
 File lengths (MBytes):  RWF=      5 Int=      0 D2E=      0 Chk=      1 Scr=      1
 Normal termination of Gaussian 09 at Wed May 26 19:08:32 2021.
