 Entering Gaussian System, Link 0=g09
 Input=c2h6_041.com
 Output=c2h6_041.log
 Initial command:
 /programs/64bit/g09/g09-gfortran/bin/l1.exe /data/scratch/Gau-6889.inp -scrdir=/data/scratch/
 Entering Link 1 = /programs/64bit/g09/g09-gfortran/bin/l1.exe PID=      6890.
  
 Copyright (c) 1988,1990,1992,1993,1995,1998,2003,2009, Gaussian, Inc.
                  All Rights Reserved.
  
 This is part of the Gaussian(R) 09 program.  It is based on
 the Gaussian(R) 03 system (copyright 2003, Gaussian, Inc.),
 the Gaussian(R) 98 system (copyright 1998, Gaussian, Inc.),
 the Gaussian(R) 94 system (copyright 1995, Gaussian, Inc.),
 the Gaussian 92(TM) system (copyright 1992, Gaussian, Inc.),
 the Gaussian 90(TM) system (copyright 1990, Gaussian, Inc.),
 the Gaussian 88(TM) system (copyright 1988, Gaussian, Inc.),
 the Gaussian 86(TM) system (copyright 1986, Carnegie Mellon
 University), and the Gaussian 82(TM) system (copyright 1983,
 Carnegie Mellon University). Gaussian is a federally registered
 trademark of Gaussian, Inc.
  
 This software contains proprietary and confidential information,
 including trade secrets, belonging to Gaussian, Inc.
  
 This software is provided under written license and may be
 used, copied, transmitted, or stored only in accord with that
 written license.
  
 The following legend is applicable only to US Government
 contracts under FAR:
  
                    RESTRICTED RIGHTS LEGEND
  
 Use, reproduction and disclosure by the US Government is
 subject to restrictions as set forth in subparagraphs (a)
 and (c) of the Commercial Computer Software - Restricted
 Rights clause in FAR 52.227-19.
  
 Gaussian, Inc.
 340 Quinnipiac St., Bldg. 40, Wallingford CT 06492
  
  
 ---------------------------------------------------------------
 Warning -- This program may not be used in any manner that
 competes with the business of Gaussian, Inc. or will provide
 assistance to any competitor of Gaussian, Inc.  The licensee
 of this program is prohibited from giving any competitor of
 Gaussian, Inc. access to this program.  By using this program,
 the user acknowledges that Gaussian, Inc. is engaged in the
 business of creating and licensing software in the field of
 computational chemistry and represents and warrants to the
 licensee that it is not a competitor of Gaussian, Inc. and that
 it will not use this program in any manner prohibited above.
 ---------------------------------------------------------------
  

 Cite this work as:
 Gaussian 09, Revision A.02,
 M. J. Frisch, G. W. Trucks, H. B. Schlegel, G. E. Scuseria, 
 M. A. Robb, J. R. Cheeseman, G. Scalmani, V. Barone, B. Mennucci, 
 G. A. Petersson, H. Nakatsuji, M. Caricato, X. Li, H. P. Hratchian, 
 A. F. Izmaylov, J. Bloino, G. Zheng, J. L. Sonnenberg, M. Hada, 
 M. Ehara, K. Toyota, R. Fukuda, J. Hasegawa, M. Ishida, T. Nakajima, 
 Y. Honda, O. Kitao, H. Nakai, T. Vreven, J. A. Montgomery, Jr., 
 J. E. Peralta, F. Ogliaro, M. Bearpark, J. J. Heyd, E. Brothers, 
 K. N. Kudin, V. N. Staroverov, R. Kobayashi, J. Normand, 
 K. Raghavachari, A. Rendell, J. C. Burant, S. S. Iyengar, J. Tomasi, 
 M. Cossi, N. Rega, J. M. Millam, M. Klene, J. E. Knox, J. B. Cross, 
 V. Bakken, C. Adamo, J. Jaramillo, R. Gomperts, R. E. Stratmann, 
 O. Yazyev, A. J. Austin, R. Cammi, C. Pomelli, J. W. Ochterski, 
 R. L. Martin, K. Morokuma, V. G. Zakrzewski, G. A. Voth, 
 P. Salvador, J. J. Dannenberg, S. Dapprich, A. D. Daniels, 
 O. Farkas, J. B. Foresman, J. V. Ortiz, J. Cioslowski, 
 and D. J. Fox, Gaussian, Inc., Wallingford CT, 2009.
 
 ******************************************
 Gaussian 09:  EM64L-G09RevA.02 11-Jun-2009
                26-May-2021 
 ******************************************
 %chk=c2h6_041.chk
 %mem=100MB
 --------------------------------
 #p b3lyp/6-31+g(d,p) force nosym
 --------------------------------
 1/10=7,30=1,38=1/1,3;
 2/12=2,15=1,17=6,18=5,40=1/2;
 3/5=1,6=6,7=111,11=2,16=1,25=1,30=1,71=1,74=-5/1,2,3;
 4//1;
 5/5=2,38=5/2;
 6/7=2,8=2,9=2,10=2,28=1/1;
 7/29=1,30=1/1,2,3,16;
 1/10=7,30=1/3;
 99//99;
 Leave Link    1 at Wed May 26 19:14:36 2021, MaxMem=   13107200 cpu:       0.0
 (Enter /programs/64bit/g09/g09-gfortran/bin/l101.exe)
 -------------
 c2h6 molecule
 -------------
 Symbolic Z-matrix:
 Charge =  0 Multiplicity = 1
 C1
 C2                   1    d1
 H3                   1    d2       2    a1
 H4                   1    d3       2    a2       3    t1       0
 H5                   1    d4       2    a3       3    t2       0
 H6                   2    d5       1    a4       3    t3       0
 H7                   2    d6       1    a5       6    t4       0
 H8                   2    d7       1    a6       6    t5       0
       Variables:
       Constants:
  d1                    1.56347                  
  a1                  131.61654                  
  t1                  104.03959                  
  d2                    1.09424                  
  a2                   91.64612                  
  t2                 -150.17349                  
  d3                    1.10234                  
  d4                    1.09414                  
  a3                  117.64386                  
  d5                    1.0989                   
  a4                   99.4636                   
  t3                  179.30493                  
  d6                    1.09155                  
  a5                  105.73555                  
  t4                  103.40401                  
  d7                    1.0904                   
  a6                  117.6804                   
  t5                 -119.96294                  
 
 NAtoms=      8 NQM=      8 NQMF=      0 NMic=      0 NMicF=      0 NTot=      8.
                    Isotopes and Nuclear Properties:
 (Nuclear quadrupole moments (NQMom) in fm**2, nuclear magnetic moments (NMagM)
  in nuclear magnetons)

  Atom         1           2           3           4           5           6           7           8
 IAtWgt=          12          12           1           1           1           1           1           1
 AtmWgt=  12.0000000  12.0000000   1.0078250   1.0078250   1.0078250   1.0078250   1.0078250   1.0078250
 NucSpn=           0           0           1           1           1           1           1           1
 AtZEff=   0.0000000   0.0000000   0.0000000   0.0000000   0.0000000   0.0000000   0.0000000   0.0000000
 NQMom=    0.0000000   0.0000000   0.0000000   0.0000000   0.0000000   0.0000000   0.0000000   0.0000000
 NMagM=    0.0000000   0.0000000   2.7928460   2.7928460   2.7928460   2.7928460   2.7928460   2.7928460
 Leave Link  101 at Wed May 26 19:14:36 2021, MaxMem=   13107200 cpu:       0.0
 (Enter /programs/64bit/g09/g09-gfortran/bin/l103.exe)

 GradGradGradGradGradGradGradGradGradGradGradGradGradGradGradGradGradGrad
 Berny optimization.
 Initialization pass.
                       ----------------------------
                       !    Initial Parameters    !
                       ! (Angstroms and Degrees)  !
 ----------------------                            ----------------------
 !      Name          Value   Derivative information (Atomic Units)     !
 ------------------------------------------------------------------------
 !       d1          1.5635   Frozen                                    !
 !       a1        131.6165   Frozen                                    !
 !       t1        104.0396   Frozen                                    !
 !       d2          1.0942   Frozen                                    !
 !       a2         91.6461   Frozen                                    !
 !       t2       -150.1735   Frozen                                    !
 !       d3          1.1023   Frozen                                    !
 !       d4          1.0941   Frozen                                    !
 !       a3        117.6439   Frozen                                    !
 !       d5          1.0989   Frozen                                    !
 !       a4         99.4636   Frozen                                    !
 !       t3        179.3049   Frozen                                    !
 !       d6          1.0916   Frozen                                    !
 !       a5        105.7356   Frozen                                    !
 !       t4        103.404    Frozen                                    !
 !       d7          1.0904   Frozen                                    !
 !       a6        117.6804   Frozen                                    !
 !       t5       -119.9629   Frozen                                    !
 ------------------------------------------------------------------------
 Trust Radius=3.00D-01 FncErr=1.00D-07 GrdErr=1.00D-07
 Number of steps in this run=   2 maximum allowed number of steps=   2.
 GradGradGradGradGradGradGradGradGradGradGradGradGradGradGradGradGradGrad

 Leave Link  103 at Wed May 26 19:14:36 2021, MaxMem=   13107200 cpu:       0.0
 (Enter /programs/64bit/g09/g09-gfortran/bin/l202.exe)
                          Input orientation:                          
 ---------------------------------------------------------------------
 Center     Atomic      Atomic             Coordinates (Angstroms)
 Number     Number       Type             X           Y           Z
 ---------------------------------------------------------------------
      1          6           0        0.000000    0.000000    0.000000
      2          6           0        0.000000    0.000000    1.563467
      3          1           0        0.818057    0.000000   -0.726728
      4          1           0       -0.267309   -1.068971   -0.031666
      5          1           0       -0.840850    0.482076   -0.507651
      6          1           0       -1.083869    0.013149    1.744150
      7          1           0        0.231140   -1.024903    1.859493
      8          1           0        0.492373    0.830637    2.069998
 ---------------------------------------------------------------------
                    Distance matrix (angstroms):
                    1          2          3          4          5
     1  C    0.000000
     2  C    1.563467   0.000000
     3  H    1.094235   2.431915   0.000000
     4  H    1.102341   1.938712   1.674464   0.000000
     5  H    1.094137   2.286691   1.741369   1.720831   0.000000
     6  H    2.053535   1.098905   3.118130   2.234117   2.312912
     7  H    2.135783   1.091551   2.843139   1.956241   3.003918
     8  H    2.284137   1.090396   2.935593   2.933023   2.922885
                    6          7          8
     6  H    0.000000
     7  H    1.679317   0.000000
     8  H    1.805271   1.885626   0.000000
 Symmetry turned off by external request.
 Stoichiometry    C2H6
 Framework group  C1[X(C2H6)]
 Deg. of freedom    18
 Full point group                 C1      NOp   1
 Rotational constants (GHZ):     83.6161198     19.4355252     19.2896752
 Leave Link  202 at Wed May 26 19:14:36 2021, MaxMem=   13107200 cpu:       0.0
 (Enter /programs/64bit/g09/g09-gfortran/bin/l301.exe)
 Standard basis: 6-31+G(d,p) (6D, 7F)
 Ernie: Thresh=  0.10000D-02 Tol=  0.10000D-05 Strict=F.
 Integral buffers will be    131072 words long.
 Raffenetti 2 integral format.
 Two-electron integral symmetry is turned off.
    68 basis functions,   106 primitive gaussians,    68 cartesian basis functions
     9 alpha electrons        9 beta electrons
       nuclear repulsion energy        41.9592033744 Hartrees.
 IExCor=  402 DFT=T Ex+Corr=B3LYP ExCW=0 ScaHFX=  0.200000
 ScaDFX=  0.800000  0.720000  1.000000  0.810000 ScalE2=  1.000000  1.000000
 IRadAn=      0 IRanWt=     -1 IRanGd=            0 ICorTp=0
 NAtoms=    8 NActive=    8 NUniq=    8 SFac= 7.50D-01 NAtFMM=   80 NAOKFM=F Big=F
 Leave Link  301 at Wed May 26 19:14:36 2021, MaxMem=   13107200 cpu:       0.0
 (Enter /programs/64bit/g09/g09-gfortran/bin/l302.exe)
 NPDir=0 NMtPBC=     1 NCelOv=     1 NCel=       1 NClECP=     1 NCelD=      1
         NCelK=      1 NCelE2=     1 NClLst=     1 CellRange=     0.0.
 One-electron integrals computed using PRISM.
 NBasis=    68 RedAO= T  NBF=    68
 NBsUse=    68 1.00D-06 NBFU=    68
 Precomputing XC quadrature grid using
 IXCGrd= 2 IRadAn=           0 IRanWt=          -1 IRanGd=           0 AccXCQ= 1.00D-10.
 NRdTot=     510 NPtTot=       65100 NUsed=       68787 NTot=       68819
 NSgBfM=    68    68    68    68    68 NAtAll=     8     8.
 Leave Link  302 at Wed May 26 19:14:36 2021, MaxMem=   13107200 cpu:       0.1
 (Enter /programs/64bit/g09/g09-gfortran/bin/l303.exe)
 DipDrv:  MaxL=1.
 Leave Link  303 at Wed May 26 19:14:36 2021, MaxMem=   13107200 cpu:       0.0
 (Enter /programs/64bit/g09/g09-gfortran/bin/l401.exe)
 Harris functional with IExCor=  402 diagonalized for initial guess.
 ExpMin= 4.38D-02 ExpMax= 3.05D+03 ExpMxC= 4.57D+02 IAcc=2 IRadAn=         0 AccDes= 0.00D+00
 HarFok:  IExCor=  402 AccDes= 0.00D+00 IRadAn=         0 IDoV= 1
 ScaDFX=  1.000000  1.000000  1.000000  1.000000
 FoFCou: FMM=F IPFlag=           0 FMFlag=      100000 FMFlg1=           0
         NFxFlg=           0 DoJE=T BraDBF=F KetDBF=T FulRan=T
         Omega=  0.000000  0.000000  1.000000  0.000000  0.000000 ICntrl=     500 IOpCl=  0
         NMat0=    1 NMatS0=    1 NMatT0=    0 NMatD0=    1 NMtDS0=    0 NMtDT0=    0
         I1Cent=           4 NGrid=           0.
 Symmetry not used in FoFCou.
 Harris En= -79.8646320372337    
 Leave Link  401 at Wed May 26 19:14:37 2021, MaxMem=   13107200 cpu:       0.7
 (Enter /programs/64bit/g09/g09-gfortran/bin/l502.exe)
 Closed shell SCF:
 Requested convergence on RMS density matrix=1.00D-08 within 128 cycles.
 Requested convergence on MAX density matrix=1.00D-06.
 Requested convergence on             energy=1.00D-06.
 No special actions if energy rises.
 Using DIIS extrapolation, IDIIS=  1040.
 Two-electron integral symmetry not used.
        68702 words used for storage of precomputed grid.
 Keep R1 ints in memory in canonical form, NReq=3743087.
 IEnd=      101552 IEndB=      101552 NGot=    13107200 MDV=    10273922
 LenX=    10273922 LenY=    10268857
 Symmetry not used in FoFDir.
 MinBra= 0 MaxBra= 2 Meth= 1.
 IRaf=       0 NMat=   1 IRICut=       1 DoRegI=T DoRafI=F ISym2E= 0 JSym2E=0.

 Cycle   1  Pass 1  IDiag  1:
 E= -79.6839765885222    
 DIIS: error= 3.87D-02 at cycle   1 NSaved=   1.
 NSaved= 1 IEnMin= 1 EnMin= -79.6839765885222     IErMin= 1 ErrMin= 3.87D-02
 ErrMax= 3.87D-02 EMaxC= 1.00D-01 BMatC= 1.11D-01 BMatP= 1.11D-01
 IDIUse=3 WtCom= 6.13D-01 WtEn= 3.87D-01
 Coeff-Com:  0.100D+01
 Coeff-En:   0.100D+01
 Coeff:      0.100D+01
 Gap=     0.253 Goal=   None    Shift=    0.000
 GapD=    0.253 DampG=1.000 DampE=0.500 DampFc=0.5000 IDamp=-1.
 Damping current iteration by 5.00D-01
 RMSDP=1.01D-02 MaxDP=1.41D-01              OVMax= 2.05D-01

 Cycle   2  Pass 1  IDiag  1:
 E= -79.7359415821935     Delta-E=       -0.051964993671 Rises=F Damp=T
 DIIS: error= 1.11D-02 at cycle   2 NSaved=   2.
 NSaved= 2 IEnMin= 2 EnMin= -79.7359415821935     IErMin= 2 ErrMin= 1.11D-02
 ErrMax= 1.11D-02 EMaxC= 1.00D-01 BMatC= 4.76D-03 BMatP= 1.11D-01
 IDIUse=3 WtCom= 8.89D-01 WtEn= 1.11D-01
 Coeff-Com:  0.112D+00 0.888D+00
 Coeff-En:   0.191D+00 0.809D+00
 Coeff:      0.121D+00 0.879D+00
 Gap=     0.352 Goal=   None    Shift=    0.000
 RMSDP=1.69D-03 MaxDP=1.75D-02 DE=-5.20D-02 OVMax= 1.15D-01

 Cycle   3  Pass 1  IDiag  1:
 E= -79.8100016618952     Delta-E=       -0.074060079702 Rises=F Damp=F
 DIIS: error= 1.66D-03 at cycle   3 NSaved=   3.
 NSaved= 3 IEnMin= 3 EnMin= -79.8100016618952     IErMin= 3 ErrMin= 1.66D-03
 ErrMax= 1.66D-03 EMaxC= 1.00D-01 BMatC= 2.28D-04 BMatP= 4.76D-03
 IDIUse=3 WtCom= 9.83D-01 WtEn= 1.66D-02
 Coeff-Com:  0.912D-02 0.141D+00 0.850D+00
 Coeff-En:   0.000D+00 0.000D+00 0.100D+01
 Coeff:      0.897D-02 0.139D+00 0.852D+00
 Gap=     0.339 Goal=   None    Shift=    0.000
 RMSDP=3.15D-04 MaxDP=2.69D-03 DE=-7.41D-02 OVMax= 4.96D-03

 Cycle   4  Pass 1  IDiag  1:
 E= -79.8102035770279     Delta-E=       -0.000201915133 Rises=F Damp=F
 DIIS: error= 4.92D-04 at cycle   4 NSaved=   4.
 NSaved= 4 IEnMin= 4 EnMin= -79.8102035770279     IErMin= 4 ErrMin= 4.92D-04
 ErrMax= 4.92D-04 EMaxC= 1.00D-01 BMatC= 1.80D-05 BMatP= 2.28D-04
 IDIUse=3 WtCom= 9.95D-01 WtEn= 4.92D-03
 Coeff-Com: -0.234D-03 0.441D-03 0.207D+00 0.793D+00
 Coeff-En:   0.000D+00 0.000D+00 0.000D+00 0.100D+01
 Coeff:     -0.233D-03 0.439D-03 0.206D+00 0.794D+00
 Gap=     0.339 Goal=   None    Shift=    0.000
 RMSDP=7.73D-05 MaxDP=9.43D-04 DE=-2.02D-04 OVMax= 1.70D-03

 Cycle   5  Pass 1  IDiag  1:
 E= -79.8102178983722     Delta-E=       -0.000014321344 Rises=F Damp=F
 DIIS: error= 2.36D-04 at cycle   5 NSaved=   5.
 NSaved= 5 IEnMin= 5 EnMin= -79.8102178983722     IErMin= 5 ErrMin= 2.36D-04
 ErrMax= 2.36D-04 EMaxC= 1.00D-01 BMatC= 3.52D-06 BMatP= 1.80D-05
 IDIUse=3 WtCom= 9.98D-01 WtEn= 2.36D-03
 Coeff-Com: -0.112D-03-0.307D-02 0.911D-01 0.424D+00 0.488D+00
 Coeff-En:   0.000D+00 0.000D+00 0.000D+00 0.000D+00 0.100D+01
 Coeff:     -0.112D-03-0.306D-02 0.909D-01 0.423D+00 0.489D+00
 Gap=     0.339 Goal=   None    Shift=    0.000
 RMSDP=2.38D-05 MaxDP=4.41D-04 DE=-1.43D-05 OVMax= 5.78D-04

 Cycle   6  Pass 1  IDiag  1:
 E= -79.8102213449704     Delta-E=       -0.000003446598 Rises=F Damp=F
 DIIS: error= 1.74D-05 at cycle   6 NSaved=   6.
 NSaved= 6 IEnMin= 6 EnMin= -79.8102213449704     IErMin= 6 ErrMin= 1.74D-05
 ErrMax= 1.74D-05 EMaxC= 1.00D-01 BMatC= 2.30D-08 BMatP= 3.52D-06
 IDIUse=1 WtCom= 1.00D+00 WtEn= 0.00D+00
 Coeff-Com:  0.187D-03-0.608D-03 0.658D-02 0.364D-01 0.891D-01 0.868D+00
 Coeff:      0.187D-03-0.608D-03 0.658D-02 0.364D-01 0.891D-01 0.868D+00
 Gap=     0.339 Goal=   None    Shift=    0.000
 RMSDP=2.81D-06 MaxDP=4.09D-05 DE=-3.45D-06 OVMax= 5.88D-05

 Cycle   7  Pass 1  IDiag  1:
 E= -79.8102213690286     Delta-E=       -0.000000024058 Rises=F Damp=F
 DIIS: error= 3.42D-06 at cycle   7 NSaved=   7.
 NSaved= 7 IEnMin= 7 EnMin= -79.8102213690286     IErMin= 7 ErrMin= 3.42D-06
 ErrMax= 3.42D-06 EMaxC= 1.00D-01 BMatC= 1.14D-09 BMatP= 2.30D-08
 IDIUse=1 WtCom= 1.00D+00 WtEn= 0.00D+00
 Coeff-Com:  0.764D-04-0.106D-03-0.149D-02-0.488D-02 0.906D-02 0.273D+00
 Coeff-Com:  0.724D+00
 Coeff:      0.764D-04-0.106D-03-0.149D-02-0.488D-02 0.906D-02 0.273D+00
 Coeff:      0.724D+00
 Gap=     0.339 Goal=   None    Shift=    0.000
 RMSDP=7.49D-07 MaxDP=7.12D-06 DE=-2.41D-08 OVMax= 1.28D-05

 Cycle   8  Pass 1  IDiag  1:
 E= -79.8102213703542     Delta-E=       -0.000000001326 Rises=F Damp=F
 DIIS: error= 2.47D-07 at cycle   8 NSaved=   8.
 NSaved= 8 IEnMin= 8 EnMin= -79.8102213703542     IErMin= 8 ErrMin= 2.47D-07
 ErrMax= 2.47D-07 EMaxC= 1.00D-01 BMatC= 6.62D-12 BMatP= 1.14D-09
 IDIUse=1 WtCom= 1.00D+00 WtEn= 0.00D+00
 Coeff-Com:  0.283D-05-0.138D-05-0.264D-03-0.103D-02-0.832D-03 0.139D-01
 Coeff-Com:  0.854D-01 0.903D+00
 Coeff:      0.283D-05-0.138D-05-0.264D-03-0.103D-02-0.832D-03 0.139D-01
 Coeff:      0.854D-01 0.903D+00
 Gap=     0.339 Goal=   None    Shift=    0.000
 RMSDP=7.28D-08 MaxDP=8.93D-07 DE=-1.33D-09 OVMax= 1.41D-06

 Cycle   9  Pass 1  IDiag  1:
 E= -79.8102213703624     Delta-E=       -0.000000000008 Rises=F Damp=F
 DIIS: error= 3.40D-08 at cycle   9 NSaved=   9.
 NSaved= 9 IEnMin= 9 EnMin= -79.8102213703624     IErMin= 9 ErrMin= 3.40D-08
 ErrMax= 3.40D-08 EMaxC= 1.00D-01 BMatC= 1.59D-13 BMatP= 6.62D-12
 IDIUse=1 WtCom= 1.00D+00 WtEn= 0.00D+00
 Coeff-Com: -0.888D-06 0.986D-06-0.259D-04-0.109D-03-0.239D-03-0.150D-02
 Coeff-Com:  0.593D-02 0.167D+00 0.829D+00
 Coeff:     -0.888D-06 0.986D-06-0.259D-04-0.109D-03-0.239D-03-0.150D-02
 Coeff:      0.593D-02 0.167D+00 0.829D+00
 Gap=     0.339 Goal=   None    Shift=    0.000
 RMSDP=1.13D-08 MaxDP=1.09D-07 DE=-8.17D-12 OVMax= 1.64D-07

 Cycle  10  Pass 1  IDiag  1:
 E= -79.8102213703627     Delta-E=       -0.000000000000 Rises=F Damp=F
 DIIS: error= 5.94D-09 at cycle  10 NSaved=  10.
 NSaved=10 IEnMin=10 EnMin= -79.8102213703627     IErMin=10 ErrMin= 5.94D-09
 ErrMax= 5.94D-09 EMaxC= 1.00D-01 BMatC= 3.02D-15 BMatP= 1.59D-13
 IDIUse=1 WtCom= 1.00D+00 WtEn= 0.00D+00
 Coeff-Com: -0.228D-06 0.224D-06-0.201D-06-0.411D-05-0.306D-04-0.558D-03
 Coeff-Com: -0.439D-03 0.144D-01 0.151D+00 0.836D+00
 Coeff:     -0.228D-06 0.224D-06-0.201D-06-0.411D-05-0.306D-04-0.558D-03
 Coeff:     -0.439D-03 0.144D-01 0.151D+00 0.836D+00
 Gap=     0.339 Goal=   None    Shift=    0.000
 RMSDP=1.41D-09 MaxDP=1.29D-08 DE=-3.41D-13 OVMax= 2.21D-08

 SCF Done:  E(RB3LYP) =  -79.8102213704     A.U. after   10 cycles
             Convg  =    0.1408D-08             -V/T =  2.0108
 KE= 7.895655594896D+01 PE=-2.675694301204D+02 EE= 6.684344942675D+01
 Leave Link  502 at Wed May 26 19:14:45 2021, MaxMem=   13107200 cpu:       7.1
 (Enter /programs/64bit/g09/g09-gfortran/bin/l601.exe)
 Copying SCF densities to generalized density rwf, IOpCl= 0 IROHF=0.

 **********************************************************************

            Population analysis using the SCF density.

 **********************************************************************

 Alpha  occ. eigenvalues --  -10.18722 -10.17836  -0.75753  -0.62030  -0.44813
 Alpha  occ. eigenvalues --   -0.42850  -0.37646  -0.33856  -0.32468
 Alpha virt. eigenvalues --    0.01448   0.02738   0.05241   0.05553   0.07880
 Alpha virt. eigenvalues --    0.08843   0.09057   0.13804   0.14408   0.18718
 Alpha virt. eigenvalues --    0.21658   0.24127   0.25014   0.28611   0.32849
 Alpha virt. eigenvalues --    0.63495   0.63920   0.65261   0.66911   0.69417
 Alpha virt. eigenvalues --    0.69790   0.88888   0.91810   0.94625   0.96856
 Alpha virt. eigenvalues --    1.04859   1.10026   1.10883   1.25893   1.35975
 Alpha virt. eigenvalues --    1.37012   1.62478   1.77803   1.82084   1.95865
 Alpha virt. eigenvalues --    2.04163   2.06487   2.12177   2.13082   2.20464
 Alpha virt. eigenvalues --    2.24150   2.30612   2.37090   2.45845   2.51609
 Alpha virt. eigenvalues --    2.65759   2.75304   2.77174   2.81375   2.87591
 Alpha virt. eigenvalues --    2.96122   3.20284   3.29352   3.39703   3.42272
 Alpha virt. eigenvalues --    3.50109   3.55840   4.34510   4.60755
          Condensed to atoms (all electrons):
              1          2          3          4          5          6
     1  C    5.163535   0.221236   0.378528   0.419034   0.403845  -0.057447
     2  C    0.221236   5.127866  -0.004029  -0.086046  -0.034190   0.410036
     3  H    0.378528  -0.004029   0.546090  -0.037244  -0.033295   0.003997
     4  H    0.419034  -0.086046  -0.037244   0.618966  -0.032667  -0.004976
     5  H    0.403845  -0.034190  -0.033295  -0.032667   0.552992  -0.010243
     6  H   -0.057447   0.410036   0.003997  -0.004976  -0.010243   0.573352
     7  H   -0.076308   0.439973  -0.000484  -0.017188   0.004645  -0.041642
     8  H   -0.024143   0.385259  -0.002938   0.006349  -0.000024  -0.025458
              7          8
     1  C   -0.076308  -0.024143
     2  C    0.439973   0.385259
     3  H   -0.000484  -0.002938
     4  H   -0.017188   0.006349
     5  H    0.004645  -0.000024
     6  H   -0.041642  -0.025458
     7  H    0.558607  -0.020988
     8  H   -0.020988   0.531403
 Mulliken atomic charges:
              1
     1  C   -0.428281
     2  C   -0.460104
     3  H    0.149374
     4  H    0.133771
     5  H    0.148937
     6  H    0.152379
     7  H    0.153384
     8  H    0.150540
 Sum of Mulliken atomic charges =  -0.00000
 Mulliken charges with hydrogens summed into heavy atoms:
              1
     1  C    0.003801
     2  C   -0.003801
 Sum of Mulliken charges with hydrogens summed into heavy atoms =  -0.00000
 Electronic spatial extent (au):  <R**2>=            149.4486
 Charge=             -0.0000 electrons
 Dipole moment (field-independent basis, Debye):
    X=             -0.1926    Y=             -0.2413    Z=              0.0407  Tot=              0.3114
 Quadrupole moment (field-independent basis, Debye-Ang):
   XX=            -15.3979   YY=            -15.1507   ZZ=            -15.4556
   XY=              0.0140   XZ=             -0.2688   YZ=             -0.2181
 Traceless Quadrupole moment (field-independent basis, Debye-Ang):
   XX=             -0.0632   YY=              0.1840   ZZ=             -0.1209
   XY=              0.0140   XZ=             -0.2688   YZ=             -0.2181
 Octapole moment (field-independent basis, Debye-Ang**2):
  XXX=              0.8622  YYY=              1.1692  ZZZ=            -36.9044  XYY=              0.7632
  XXY=              0.9002  XXZ=            -12.0223  XZZ=              0.7745  YZZ=              0.9496
  YYZ=            -10.4513  XYZ=              0.7070
 Hexadecapole moment (field-independent basis, Debye-Ang**3):
 XXXX=            -31.0854 YYYY=            -31.1080 ZZZZ=           -157.5438 XXXY=             -0.3574
 XXXZ=              0.2604 YYYX=              0.0762 YYYZ=              0.1558 ZZZX=              1.7966
 ZZZY=              1.7713 XXYY=            -10.7900 XXZZ=            -30.4094 YYZZ=            -28.8903
 XXYZ=              0.3950 YYXZ=              1.3251 ZZXY=              0.9898
 N-N= 4.195920337437D+01 E-N=-2.675694300879D+02  KE= 7.895655594896D+01
 No NMR shielding tensors so no spin-rotation constants.
 Leave Link  601 at Wed May 26 19:14:45 2021, MaxMem=   13107200 cpu:       0.0
 (Enter /programs/64bit/g09/g09-gfortran/bin/l701.exe)
 Compute integral first derivatives.
 ... and contract with generalized density number  0.
 Leave Link  701 at Wed May 26 19:14:45 2021, MaxMem=   13107200 cpu:       0.1
 (Enter /programs/64bit/g09/g09-gfortran/bin/l702.exe)
 L702 exits ... SP integral derivatives will be done elsewhere.
 Leave Link  702 at Wed May 26 19:14:45 2021, MaxMem=   13107200 cpu:       0.0
 (Enter /programs/64bit/g09/g09-gfortran/bin/l703.exe)
 Compute integral first derivatives, UseDBF=F ICtDFT=           0.
 Integral derivatives from FoFDir, PRISM(SPDF).
 Calling FoFJK, ICntrl=      2127 FMM=F ISym2X=0 I1Cent= 0 IOpClX= 0 NMat=1 NMatS=1 NMatT=0.
 FoFCou: FMM=F IPFlag=           0 FMFlag=      100000 FMFlg1=         800
         NFxFlg=           0 DoJE=F BraDBF=F KetDBF=F FulRan=T
         Omega=  0.000000  0.000000  1.000000  0.000000  0.000000 ICntrl=    2127 IOpCl=  0
         NMat0=    1 NMatS0=    1 NMatT0=    0 NMatD0=    1 NMtDS0=    0 NMtDT0=    0
         I1Cent=           0 NGrid=           0.
 Symmetry not used in FoFCou.
 Leave Link  703 at Wed May 26 19:14:46 2021, MaxMem=   13107200 cpu:       1.4
 (Enter /programs/64bit/g09/g09-gfortran/bin/l716.exe)
 Dipole        =-7.57873763D-02-9.49191282D-02 1.59987409D-02
 -------------------------------------------------------------------
 Center     Atomic                   Forces (Hartrees/Bohr)
 Number     Number              X              Y              Z
 -------------------------------------------------------------------
      1        6          -0.016956490   -0.044100976   -0.006402038
      2        6          -0.016393121    0.008501926   -0.024608108
      3        1           0.015710579    0.013560488    0.017128044
      4        1          -0.006501366   -0.000399984   -0.021138402
      5        1           0.000661491    0.010347347    0.008343360
      6        1           0.002047635    0.009791902    0.010026582
      7        1           0.018364838    0.007672182    0.011953794
      8        1           0.003066435   -0.005372884    0.004696768
 -------------------------------------------------------------------
 Cartesian Forces:  Max     0.044100976 RMS     0.015014432
 -----------------------------------------------------------------------------------------------
                       Internal Coordinate Forces (Hartree/Bohr or radian)
  Cent   Atom   N1       Length/X         N2         Alpha/Y        N3         Beta/Z          J
 -----------------------------------------------------------------------------------------------
      1  C 
      2  C        1   0.002069(     1)
      3  H        1   0.000370(     2)      2  -0.048054(     8)
      4  H        1   0.002572(     3)      2   0.043898(     9)      3   0.012931(    14)     0
      5  H        1   0.000180(     4)      2  -0.019668(    10)      3   0.017044(    15)     0
      6  H        2  -0.000254(     5)      1   0.021197(    11)      3   0.009001(    16)     0
      7  H        2  -0.000073(     6)      1   0.025660(    12)      6   0.038920(    17)     0
      8  H        2  -0.000526(     7)      1   0.011498(    13)      6  -0.009813(    18)     0
 -----------------------------------------------------------------------------------------------
 Internal  Forces:  Max     0.048053913 RMS     0.021113694
 Force constants in Cartesian coordinates: 
                1             2             3             4             5 
      1  0.630662D+00
      2 -0.320963D-01  0.573906D+00
      3 -0.318069D-01 -0.442158D-01  0.700681D+00
      4 -0.981726D-01 -0.147638D-02  0.612057D-02  0.613977D+00
      5 -0.153839D-02 -0.875065D-01  0.121965D-01  0.475549D-01  0.705494D+00
      6 -0.757329D-02 -0.423807D-02 -0.265372D+00  0.483611D-01  0.379936D-01
      7 -0.225153D+00  0.485297D-02  0.114665D+00  0.177890D-01  0.690529D-03
      8  0.178395D-01 -0.727885D-01 -0.660091D-02  0.104752D-02  0.570738D-02
      9  0.132970D+00  0.546285D-02 -0.214202D+00  0.200245D-01  0.777309D-03
     10 -0.778173D-01 -0.684364D-01 -0.230126D-03  0.329335D-03 -0.786528D-04
     11 -0.640055D-01 -0.316433D+00 -0.780565D-02  0.102187D-03  0.768634D-03
     12 -0.396268D-02 -0.235887D-01 -0.688033D-01 -0.622966D-02 -0.252832D-01
     13 -0.240734D+00  0.940412D-01 -0.887485D-01  0.992026D-02 -0.310396D-02
     14  0.766964D-01 -0.113711D+00  0.464258D-01 -0.366882D-02  0.754844D-02
     15 -0.972000D-01  0.623416D-01 -0.152303D+00 -0.199154D-01  0.123094D-01
     16  0.429039D-02 -0.622787D-04  0.000000D+00 -0.329746D+00  0.135876D-02
     17 -0.273403D-03  0.175893D-03  0.000000D+00 -0.469756D-02 -0.760133D-01
     18  0.257568D-01 -0.386394D-03  0.000000D+00  0.500650D-01 -0.109181D-01
     19  0.209858D-02 -0.138309D-02  0.000000D+00 -0.836761D-01  0.382943D-01
     20 -0.123774D-02  0.682104D-02  0.000000D+00  0.498060D-01 -0.317275D+00
     21 -0.592390D-02  0.246958D-01  0.000000D+00 -0.326515D-01  0.707266D-01
     22  0.482578D-02  0.456035D-02  0.000000D+00 -0.130420D+00 -0.831775D-01
     23  0.461550D-02  0.953648D-02  0.000000D+00 -0.886678D-01 -0.238724D+00
     24 -0.122596D-01 -0.200713D-01  0.000000D+00 -0.657747D-01 -0.978022D-01
                6             7             8             9            10 
      6  0.581915D+00
      7  0.000000D+00  0.222349D+00
      8  0.000000D+00 -0.459828D-02  0.532196D-01
      9  0.000000D+00 -0.136126D+00 -0.517616D-02  0.190045D+00
     10  0.000000D+00 -0.302676D-02 -0.265149D-01 -0.340714D-02  0.670269D-01
     11  0.000000D+00  0.662675D-03  0.590045D-02  0.745955D-03  0.668409D-01
     12  0.000000D+00  0.318002D-02  0.246408D-01  0.357966D-02 -0.666595D-03
     13  0.000000D+00 -0.119585D-01  0.122470D-01 -0.134613D-01  0.135028D-01
     14  0.000000D+00 -0.160788D-02  0.781546D-02 -0.180995D-02  0.280841D-01
     15  0.000000D+00  0.182806D-01 -0.128637D-01  0.205780D-01  0.430386D-02
     16  0.442710D-01  0.000000D+00  0.881118D-05  0.000000D+00  0.634615D-05
     17 -0.979321D-02  0.000000D+00  0.726282D-03  0.000000D+00  0.523096D-03
     18 -0.717522D-01  0.000000D+00  0.000000D+00  0.000000D+00  0.000000D+00
     19 -0.279105D-01  0.000000D+00 -0.731001D-03  0.000000D+00 -0.526495D-03
     20  0.651855D-01  0.000000D+00 -0.164858D-03  0.000000D+00 -0.118737D-03
     21 -0.988614D-01  0.000000D+00  0.000000D+00  0.000000D+00  0.000000D+00
     22 -0.571484D-01  0.000000D+00  0.701392D-03  0.000000D+00  0.505169D-03
     23 -0.891478D-01  0.000000D+00 -0.415761D-03  0.000000D+00 -0.299447D-03
     24 -0.145929D+00  0.000000D+00  0.000000D+00  0.000000D+00  0.000000D+00
               11            12            13            14            15 
     11  0.317288D+00
     12  0.820984D-02  0.627285D-01
     13 -0.360401D-02  0.767891D-02  0.229261D+00
     14 -0.749738D-02  0.160213D-01 -0.995191D-01  0.105951D+00
     15 -0.115015D-02  0.249518D-02  0.945310D-01 -0.606372D-01  0.129230D+00
     16 -0.158693D-05  0.000000D+00 -0.369889D-05 -0.645170D-05  0.000000D+00
     17 -0.130807D-03  0.000000D+00 -0.304889D-03 -0.531796D-03  0.000000D+00
     18  0.000000D+00  0.000000D+00  0.000000D+00  0.000000D+00  0.000000D+00
     19  0.131656D-03  0.000000D+00  0.306870D-03  0.535252D-03  0.000000D+00
     20  0.296916D-04  0.000000D+00  0.692065D-04  0.120712D-03  0.000000D+00
     21  0.000000D+00  0.000000D+00  0.000000D+00  0.000000D+00  0.000000D+00
     22 -0.126324D-03  0.000000D+00 -0.294440D-03 -0.513571D-03  0.000000D+00
     23  0.748803D-04  0.000000D+00  0.174534D-03  0.304427D-03  0.000000D+00
     24  0.000000D+00  0.000000D+00  0.000000D+00  0.000000D+00  0.000000D+00
               16            17            18            19            20 
     16  0.330320D+00
     17 -0.223621D-02  0.606212D-01
     18 -0.461181D-01  0.677465D-02  0.608921D-01
     19 -0.143269D-02  0.342844D-01 -0.110894D-01  0.694868D-01
     20 -0.209736D-03  0.550826D-02 -0.165902D-02 -0.549691D-01  0.313445D+00
     21  0.392511D-03 -0.769881D-02  0.291486D-02  0.258550D-01 -0.709667D-01
     22 -0.343419D-02 -0.272954D-01 -0.186143D-01  0.137431D-01  0.666010D-02
     23  0.114869D-02  0.964420D-02  0.618882D-02 -0.161624D-01 -0.848496D-02
     24  0.145452D-02  0.107174D-01  0.794530D-02  0.131450D-01  0.744015D-02
               21            22            23            24 
     21  0.804510D-01
     22  0.123279D-01  0.115075D+00
     23 -0.167569D-01  0.991909D-01  0.228065D+00
     24  0.154956D-01  0.634348D-01  0.997159D-01  0.122488D+00
 Force constants in internal coordinates: 
                1             2             3             4             5 
      1  0.265372D+00
      2  0.000000D+00  0.343277D+00
      3  0.000000D+00  0.000000D+00  0.334245D+00
      4  0.000000D+00  0.000000D+00  0.000000D+00  0.343389D+00
      5  0.000000D+00  0.000000D+00  0.000000D+00  0.000000D+00  0.338035D+00
      6  0.000000D+00  0.000000D+00  0.000000D+00  0.000000D+00  0.000000D+00
      7  0.000000D+00  0.000000D+00  0.000000D+00  0.000000D+00  0.000000D+00
      8  0.000000D+00  0.000000D+00  0.000000D+00  0.000000D+00  0.000000D+00
      9  0.000000D+00  0.000000D+00  0.000000D+00  0.000000D+00  0.000000D+00
     10  0.000000D+00  0.000000D+00  0.000000D+00  0.000000D+00  0.000000D+00
     11  0.000000D+00  0.000000D+00  0.000000D+00  0.000000D+00  0.000000D+00
     12  0.000000D+00  0.000000D+00  0.000000D+00  0.000000D+00  0.000000D+00
     13  0.000000D+00  0.000000D+00  0.000000D+00  0.000000D+00  0.000000D+00
     14  0.000000D+00  0.000000D+00  0.000000D+00  0.000000D+00  0.000000D+00
     15  0.000000D+00  0.000000D+00  0.000000D+00  0.000000D+00  0.000000D+00
     16  0.000000D+00  0.000000D+00  0.000000D+00  0.000000D+00  0.000000D+00
     17  0.000000D+00  0.000000D+00  0.000000D+00  0.000000D+00  0.000000D+00
     18  0.000000D+00  0.000000D+00  0.000000D+00  0.000000D+00  0.000000D+00
                6             7             8             9            10 
      6  0.346340D+00
      7  0.000000D+00  0.347669D+00
      8  0.000000D+00  0.000000D+00  0.295529D+00
      9  0.000000D+00  0.000000D+00  0.206335D-01  0.271231D+00
     10  0.000000D+00  0.000000D+00  0.132846D+00  0.121369D-01  0.301308D+00
     11  0.000000D+00  0.000000D+00  0.000000D+00  0.000000D+00  0.000000D+00
     12  0.000000D+00  0.000000D+00  0.000000D+00  0.000000D+00  0.000000D+00
     13  0.000000D+00  0.000000D+00  0.000000D+00  0.000000D+00  0.000000D+00
     14  0.000000D+00  0.000000D+00 -0.200789D-01 -0.114488D-01  0.216485D-01
     15  0.000000D+00  0.000000D+00  0.418733D-01 -0.676313D-01  0.238870D-01
     16  0.000000D+00  0.000000D+00  0.000000D+00  0.000000D+00  0.000000D+00
     17  0.000000D+00  0.000000D+00  0.000000D+00  0.000000D+00  0.000000D+00
     18  0.000000D+00  0.000000D+00  0.000000D+00  0.000000D+00  0.000000D+00
               11            12            13            14            15 
     11  0.229383D+00
     12  0.131510D-01  0.252496D+00
     13  0.389214D-01  0.772695D-01  0.256973D+00
     14  0.000000D+00  0.000000D+00  0.000000D+00  0.218064D+00
     15  0.000000D+00  0.000000D+00  0.000000D+00 -0.122670D+00  0.169658D+00
     16  0.934570D-04 -0.225697D-03 -0.163290D-03  0.690000D-02  0.690000D-02
     17 -0.467425D-01  0.408849D-01  0.668012D-01  0.230000D-02  0.230000D-02
     18  0.736362D-01 -0.748830D-01 -0.158026D-01  0.230000D-02  0.230000D-02
               16            17            18 
     16  0.208258D-01
     17  0.766891D-02  0.227452D+00
     18  0.602001D-02 -0.789213D-01  0.191237D+00
 Leave Link  716 at Wed May 26 19:14:46 2021, MaxMem=   13107200 cpu:       0.0
 (Enter /programs/64bit/g09/g09-gfortran/bin/l103.exe)

 GradGradGradGradGradGradGradGradGradGradGradGradGradGradGradGradGradGrad
 Berny optimization.
 Search for a local minimum.
 Step number   1 out of a maximum of    2
 All quantities printed in internal units (Hartrees-Bohrs-Radians)
 Second derivative matrix not updated -- first step.
 The second derivative matrix:
                          d1        a1        t1        d2        a2
           d1           0.26537
           a1           0.00000   0.29553
           t1           0.00000  -0.02008   0.21806
           d2           0.00000  -0.00000   0.00000   0.34328
           a2          -0.00000   0.02063  -0.01145  -0.00000   0.27123
           t2          -0.00000   0.04187  -0.12267   0.00000  -0.06763
           d3           0.00000  -0.00000  -0.00000   0.00000   0.00000
           d4           0.00000  -0.00000   0.00000  -0.00000  -0.00000
           a3          -0.00000   0.13285   0.02165  -0.00000   0.01214
           d5           0.00000   0.00000   0.00000   0.00000  -0.00000
           a4          -0.00000   0.00000   0.00000   0.00000   0.00000
           t3          -0.00000   0.00000   0.00690   0.00000   0.00000
           d6           0.00000   0.00000  -0.00000   0.00000  -0.00000
           a5          -0.00000   0.00000   0.00000   0.00000   0.00000
           t4          -0.00000   0.00000   0.00230   0.00000   0.00000
           d7          -0.00000   0.00000  -0.00000   0.00000  -0.00000
           a6           0.00000   0.00000   0.00000   0.00000   0.00000
           t5          -0.00000   0.00000   0.00230   0.00000   0.00000
                          t2        d3        d4        a3        d5
           t2           0.16966
           d3           0.00000   0.33425
           d4          -0.00000   0.00000   0.34339
           a3           0.02389   0.00000   0.00000   0.30131
           d5           0.00000   0.00000   0.00000  -0.00000   0.33804
           a4           0.00000  -0.00000  -0.00000   0.00000   0.00000
           t3           0.00690  -0.00000  -0.00000   0.00000  -0.00000
           d6          -0.00000   0.00000  -0.00000   0.00000   0.00000
           a5           0.00000  -0.00000   0.00000  -0.00000   0.00000
           t4           0.00230  -0.00000   0.00000   0.00000  -0.00000
           d7           0.00000  -0.00000   0.00000  -0.00000   0.00000
           a6          -0.00000   0.00000   0.00000  -0.00000  -0.00000
           t5           0.00230  -0.00000   0.00000  -0.00000  -0.00000
                          a4        t3        d6        a5        t4
           a4           0.22938
           t3           0.00009   0.02083
           d6           0.00000  -0.00000   0.34634
           a5           0.01315  -0.00023   0.00000   0.25250
           t4          -0.04674   0.00767  -0.00000   0.04088   0.22745
           d7           0.00000   0.00000  -0.00000  -0.00000  -0.00000
           a6           0.03892  -0.00016   0.00000   0.07727   0.06680
           t5           0.07364   0.00602  -0.00000  -0.07488  -0.07892
                          d7        a6        t5
           d7           0.34767
           a6          -0.00000   0.25697
           t5           0.00000  -0.01580   0.19124
     Eigenvalues --- 1000.000001000.000001000.000001000.000001000.00000
     Eigenvalues --- 1000.000001000.000001000.000001000.000001000.00000
     Eigenvalues --- 1000.000001000.000001000.000001000.000001000.00000
     Eigenvalues --- 1000.000001000.000001000.00000
 Angle between quadratic step and forces=  90.00 degrees.
 Linear search not attempted -- first point.
 Variable       Old X    -DE/DX   Delta X   Delta X   Delta X     New X
                                 (Linear)    (Quad)   (Total)
    d1        2.95452   0.00207   0.00000   0.00000   0.00000   2.95452
    a1        2.29714  -0.04805   0.00000   0.00000   0.00000   2.29714
    t1        1.81583   0.01293   0.00000   0.00000   0.00000   1.81583
    d2        2.06781   0.00037   0.00000   0.00000   0.00000   2.06781
    a2        1.59953   0.04390   0.00000   0.00000   0.00000   1.59953
    t2       -2.62102   0.01704   0.00000   0.00000   0.00000  -2.62102
    d3        2.08312   0.00257   0.00000   0.00000   0.00000   2.08312
    d4        2.06762   0.00018   0.00000   0.00000   0.00000   2.06762
    a3        2.05327  -0.01967   0.00000   0.00000   0.00000   2.05327
    d5        2.07663  -0.00025   0.00000   0.00000   0.00000   2.07663
    a4        1.73597   0.02120   0.00000   0.00000   0.00000   1.73597
    t3        3.12946   0.00900   0.00000   0.00000   0.00000   3.12946
    d6        2.06273  -0.00007   0.00000   0.00000   0.00000   2.06273
    a5        1.84543   0.02566   0.00000   0.00000   0.00000   1.84543
    t4        1.80474   0.03892   0.00000   0.00000   0.00000   1.80474
    d7        2.06055  -0.00053   0.00000   0.00000   0.00000   2.06055
    a6        2.05391   0.01150   0.00000   0.00000   0.00000   2.05391
    t5       -2.09375  -0.00981   0.00000   0.00000   0.00000  -2.09375
         Item               Value     Threshold  Converged?
 Maximum Force            0.000000     0.000450     YES
 RMS     Force            0.000000     0.000300     YES
 Maximum Displacement     0.000000     0.001800     YES
 RMS     Displacement     0.000000     0.001200     YES
 Predicted change in Energy=-0.000000D+00
 Optimization completed.
    -- Stationary point found.
                       ----------------------------
                       !   Optimized Parameters   !
                       ! (Angstroms and Degrees)  !
 ----------------------                            ----------------------
 !      Name          Value   Derivative information (Atomic Units)     !
 ------------------------------------------------------------------------
 !       d1          1.5635   -DE/DX =    0.0021                        !
 !       a1        131.6165   -DE/DX =   -0.0481                        !
 !       t1        104.0396   -DE/DX =    0.0129                        !
 !       d2          1.0942   -DE/DX =    0.0004                        !
 !       a2         91.6461   -DE/DX =    0.0439                        !
 !       t2       -150.1735   -DE/DX =    0.017                         !
 !       d3          1.1023   -DE/DX =    0.0026                        !
 !       d4          1.0941   -DE/DX =    0.0002                        !
 !       a3        117.6439   -DE/DX =   -0.0197                        !
 !       d5          1.0989   -DE/DX =   -0.0003                        !
 !       a4         99.4636   -DE/DX =    0.0212                        !
 !       t3        179.3049   -DE/DX =    0.009                         !
 !       d6          1.0916   -DE/DX =   -0.0001                        !
 !       a5        105.7356   -DE/DX =    0.0257                        !
 !       t4        103.404    -DE/DX =    0.0389                        !
 !       d7          1.0904   -DE/DX =   -0.0005                        !
 !       a6        117.6804   -DE/DX =    0.0115                        !
 !       t5       -119.9629   -DE/DX =   -0.0098                        !
 ------------------------------------------------------------------------
 GradGradGradGradGradGradGradGradGradGradGradGradGradGradGradGradGradGrad

 Leave Link  103 at Wed May 26 19:14:46 2021, MaxMem=   13107200 cpu:       0.0
 (Enter /programs/64bit/g09/g09-gfortran/bin/l9999.exe)
 1\1\GINC-MOLMOD\Force\RB3LYP\6-31+G(d,p)\C2H6\OSPITE\26-May-2021\1\\#p
  b3lyp/6-31+g(d,p) force nosym\\c2h6 molecule\\0,1\C\C,1,d1\H,1,d2,2,a
 1\H,1,d3,2,a2,3,t1,0\H,1,d4,2,a3,3,t2,0\H,2,d5,1,a4,3,t3,0\H,2,d6,1,a5
 ,6,t4,0\H,2,d7,1,a6,6,t5,0\\d1=1.56346701\a1=131.61654136\t1=104.03958
 999\d2=1.09423536\a2=91.64612063\t2=-150.17349369\d3=1.10234114\d4=1.0
 9413698\a3=117.64386076\d5=1.09890474\a4=99.46359616\t3=179.30492786\d
 6=1.0915513\a5=105.73555482\t4=103.40400962\d7=1.09039572\a6=117.68039
 951\t5=-119.96293895\\Version=EM64L-G09RevA.02\HF=-79.8102214\RMSD=1.4
 08e-09\RMSF=1.501e-02\Dipole=-0.0757874,-0.0949191,0.0159987\Quadrupol
 e=-0.0469518,0.1368035,-0.0898517,0.0104245,-0.1998286,-0.1621628\PG=C
 01 [X(C2H6)]\\@


 MODELS ARE TO BE USED, NOT BELIEVED.

    -- PARAPHRASED BY H. THIEL IN "PRINCIPLES OF ECONOMETRICS"
 Job cpu time:  0 days  0 hours  0 minutes  9.7 seconds.
 File lengths (MBytes):  RWF=      5 Int=      0 D2E=      0 Chk=      1 Scr=      1
 Normal termination of Gaussian 09 at Wed May 26 19:14:46 2021.
