 Entering Gaussian System, Link 0=g09
 Input=c2h6_035.com
 Output=c2h6_035.log
 Initial command:
 /programs/64bit/g09/g09-gfortran/bin/l1.exe /data/scratch/Gau-6734.inp -scrdir=/data/scratch/
 Entering Link 1 = /programs/64bit/g09/g09-gfortran/bin/l1.exe PID=      6735.
  
 Copyright (c) 1988,1990,1992,1993,1995,1998,2003,2009, Gaussian, Inc.
                  All Rights Reserved.
  
 This is part of the Gaussian(R) 09 program.  It is based on
 the Gaussian(R) 03 system (copyright 2003, Gaussian, Inc.),
 the Gaussian(R) 98 system (copyright 1998, Gaussian, Inc.),
 the Gaussian(R) 94 system (copyright 1995, Gaussian, Inc.),
 the Gaussian 92(TM) system (copyright 1992, Gaussian, Inc.),
 the Gaussian 90(TM) system (copyright 1990, Gaussian, Inc.),
 the Gaussian 88(TM) system (copyright 1988, Gaussian, Inc.),
 the Gaussian 86(TM) system (copyright 1986, Carnegie Mellon
 University), and the Gaussian 82(TM) system (copyright 1983,
 Carnegie Mellon University). Gaussian is a federally registered
 trademark of Gaussian, Inc.
  
 This software contains proprietary and confidential information,
 including trade secrets, belonging to Gaussian, Inc.
  
 This software is provided under written license and may be
 used, copied, transmitted, or stored only in accord with that
 written license.
  
 The following legend is applicable only to US Government
 contracts under FAR:
  
                    RESTRICTED RIGHTS LEGEND
  
 Use, reproduction and disclosure by the US Government is
 subject to restrictions as set forth in subparagraphs (a)
 and (c) of the Commercial Computer Software - Restricted
 Rights clause in FAR 52.227-19.
  
 Gaussian, Inc.
 340 Quinnipiac St., Bldg. 40, Wallingford CT 06492
  
  
 ---------------------------------------------------------------
 Warning -- This program may not be used in any manner that
 competes with the business of Gaussian, Inc. or will provide
 assistance to any competitor of Gaussian, Inc.  The licensee
 of this program is prohibited from giving any competitor of
 Gaussian, Inc. access to this program.  By using this program,
 the user acknowledges that Gaussian, Inc. is engaged in the
 business of creating and licensing software in the field of
 computational chemistry and represents and warrants to the
 licensee that it is not a competitor of Gaussian, Inc. and that
 it will not use this program in any manner prohibited above.
 ---------------------------------------------------------------
  

 Cite this work as:
 Gaussian 09, Revision A.02,
 M. J. Frisch, G. W. Trucks, H. B. Schlegel, G. E. Scuseria, 
 M. A. Robb, J. R. Cheeseman, G. Scalmani, V. Barone, B. Mennucci, 
 G. A. Petersson, H. Nakatsuji, M. Caricato, X. Li, H. P. Hratchian, 
 A. F. Izmaylov, J. Bloino, G. Zheng, J. L. Sonnenberg, M. Hada, 
 M. Ehara, K. Toyota, R. Fukuda, J. Hasegawa, M. Ishida, T. Nakajima, 
 Y. Honda, O. Kitao, H. Nakai, T. Vreven, J. A. Montgomery, Jr., 
 J. E. Peralta, F. Ogliaro, M. Bearpark, J. J. Heyd, E. Brothers, 
 K. N. Kudin, V. N. Staroverov, R. Kobayashi, J. Normand, 
 K. Raghavachari, A. Rendell, J. C. Burant, S. S. Iyengar, J. Tomasi, 
 M. Cossi, N. Rega, J. M. Millam, M. Klene, J. E. Knox, J. B. Cross, 
 V. Bakken, C. Adamo, J. Jaramillo, R. Gomperts, R. E. Stratmann, 
 O. Yazyev, A. J. Austin, R. Cammi, C. Pomelli, J. W. Ochterski, 
 R. L. Martin, K. Morokuma, V. G. Zakrzewski, G. A. Voth, 
 P. Salvador, J. J. Dannenberg, S. Dapprich, A. D. Daniels, 
 O. Farkas, J. B. Foresman, J. V. Ortiz, J. Cioslowski, 
 and D. J. Fox, Gaussian, Inc., Wallingford CT, 2009.
 
 ******************************************
 Gaussian 09:  EM64L-G09RevA.02 11-Jun-2009
                26-May-2021 
 ******************************************
 %chk=c2h6_035.chk
 %mem=100MB
 --------------------------------
 #p b3lyp/6-31+g(d,p) force nosym
 --------------------------------
 1/10=7,30=1,38=1/1,3;
 2/12=2,15=1,17=6,18=5,40=1/2;
 3/5=1,6=6,7=111,11=2,16=1,25=1,30=1,71=1,74=-5/1,2,3;
 4//1;
 5/5=2,38=5/2;
 6/7=2,8=2,9=2,10=2,28=1/1;
 7/29=1,30=1/1,2,3,16;
 1/10=7,30=1/3;
 99//99;
 Leave Link    1 at Wed May 26 19:13:35 2021, MaxMem=   13107200 cpu:       0.0
 (Enter /programs/64bit/g09/g09-gfortran/bin/l101.exe)
 -------------
 c2h6 molecule
 -------------
 Symbolic Z-matrix:
 Charge =  0 Multiplicity = 1
 C1
 C2                   1    d1
 H3                   1    d2       2    a1
 H4                   1    d3       2    a2       3    t1       0
 H5                   1    d4       2    a3       3    t2       0
 H6                   2    d5       1    a4       3    t3       0
 H7                   2    d6       1    a5       6    t4       0
 H8                   2    d7       1    a6       6    t5       0
       Variables:
       Constants:
  d1                    1.6233                   
  a1                  150.81276                  
  t1                   99.97379                  
  d2                    1.08867                  
  a2                   89.47653                  
  t2                 -158.38515                  
  d3                    1.07332                  
  d4                    1.0859                   
  a3                   88.3653                   
  d5                    1.08782                  
  a4                   91.64843                  
  t3                  179.81862                  
  d6                    1.09658                  
  a5                   92.05204                  
  t4                  121.57338                  
  d7                    1.10159                  
  a6                  155.79242                  
  t5                 -119.99905                  
 
 NAtoms=      8 NQM=      8 NQMF=      0 NMic=      0 NMicF=      0 NTot=      8.
                    Isotopes and Nuclear Properties:
 (Nuclear quadrupole moments (NQMom) in fm**2, nuclear magnetic moments (NMagM)
  in nuclear magnetons)

  Atom         1           2           3           4           5           6           7           8
 IAtWgt=          12          12           1           1           1           1           1           1
 AtmWgt=  12.0000000  12.0000000   1.0078250   1.0078250   1.0078250   1.0078250   1.0078250   1.0078250
 NucSpn=           0           0           1           1           1           1           1           1
 AtZEff=   0.0000000   0.0000000   0.0000000   0.0000000   0.0000000   0.0000000   0.0000000   0.0000000
 NQMom=    0.0000000   0.0000000   0.0000000   0.0000000   0.0000000   0.0000000   0.0000000   0.0000000
 NMagM=    0.0000000   0.0000000   2.7928460   2.7928460   2.7928460   2.7928460   2.7928460   2.7928460
 Leave Link  101 at Wed May 26 19:13:35 2021, MaxMem=   13107200 cpu:       0.0
 (Enter /programs/64bit/g09/g09-gfortran/bin/l103.exe)

 GradGradGradGradGradGradGradGradGradGradGradGradGradGradGradGradGradGrad
 Berny optimization.
 Initialization pass.
                       ----------------------------
                       !    Initial Parameters    !
                       ! (Angstroms and Degrees)  !
 ----------------------                            ----------------------
 !      Name          Value   Derivative information (Atomic Units)     !
 ------------------------------------------------------------------------
 !       d1          1.6233   Frozen                                    !
 !       a1        150.8128   Frozen                                    !
 !       t1         99.9738   Frozen                                    !
 !       d2          1.0887   Frozen                                    !
 !       a2         89.4765   Frozen                                    !
 !       t2       -158.3851   Frozen                                    !
 !       d3          1.0733   Frozen                                    !
 !       d4          1.0859   Frozen                                    !
 !       a3         88.3653   Frozen                                    !
 !       d5          1.0878   Frozen                                    !
 !       a4         91.6484   Frozen                                    !
 !       t3        179.8186   Frozen                                    !
 !       d6          1.0966   Frozen                                    !
 !       a5         92.052    Frozen                                    !
 !       t4        121.5734   Frozen                                    !
 !       d7          1.1016   Frozen                                    !
 !       a6        155.7924   Frozen                                    !
 !       t5       -119.9991   Frozen                                    !
 ------------------------------------------------------------------------
 Trust Radius=3.00D-01 FncErr=1.00D-07 GrdErr=1.00D-07
 Number of steps in this run=   2 maximum allowed number of steps=   2.
 GradGradGradGradGradGradGradGradGradGradGradGradGradGradGradGradGradGrad

 Leave Link  103 at Wed May 26 19:13:35 2021, MaxMem=   13107200 cpu:       0.0
 (Enter /programs/64bit/g09/g09-gfortran/bin/l202.exe)
                          Input orientation:                          
 ---------------------------------------------------------------------
 Center     Atomic      Atomic             Coordinates (Angstroms)
 Number     Number       Type             X           Y           Z
 ---------------------------------------------------------------------
      1          6           0        0.000000    0.000000    0.000000
      2          6           0        0.000000    0.000000    1.623300
      3          1           0        0.530908    0.000000   -0.950445
      4          1           0       -0.185889   -1.057057    0.009806
      5          1           0       -1.009127    0.399844    0.030977
      6          1           0       -1.087360    0.003442    1.654592
      7          1           0        0.570833   -0.935468    1.662565
      8          1           0        0.227081    0.390470    2.628022
 ---------------------------------------------------------------------
                    Distance matrix (angstroms):
                    1          2          3          4          5
     1  C    0.000000
     2  C    1.623300   0.000000
     3  H    1.088673   2.627931   0.000000
     4  H    1.073322   1.937856   1.597889   0.000000
     5  H    1.085897   1.927097   1.869431   1.673538   0.000000
     6  H    1.979909   1.087816   3.066761   2.154677   1.673135
     7  H    1.991249   1.096582   2.775701   1.821819   2.634656
     8  H    2.666558   1.101589   3.612506   3.020088   2.876271
                    6          7          8
     6  H    0.000000
     7  H    1.905576   0.000000
     8  H    1.680806   1.675823   0.000000
 Symmetry turned off by external request.
 Stoichiometry    C2H6
 Framework group  C1[X(C2H6)]
 Deg. of freedom    18
 Full point group                 C1      NOp   1
 Rotational constants (GHZ):     98.1072121     18.8632630     17.8437452
 Leave Link  202 at Wed May 26 19:13:35 2021, MaxMem=   13107200 cpu:       0.0
 (Enter /programs/64bit/g09/g09-gfortran/bin/l301.exe)
 Standard basis: 6-31+G(d,p) (6D, 7F)
 Ernie: Thresh=  0.10000D-02 Tol=  0.10000D-05 Strict=F.
 Integral buffers will be    131072 words long.
 Raffenetti 2 integral format.
 Two-electron integral symmetry is turned off.
    68 basis functions,   106 primitive gaussians,    68 cartesian basis functions
     9 alpha electrons        9 beta electrons
       nuclear repulsion energy        41.8744428356 Hartrees.
 IExCor=  402 DFT=T Ex+Corr=B3LYP ExCW=0 ScaHFX=  0.200000
 ScaDFX=  0.800000  0.720000  1.000000  0.810000 ScalE2=  1.000000  1.000000
 IRadAn=      0 IRanWt=     -1 IRanGd=            0 ICorTp=0
 NAtoms=    8 NActive=    8 NUniq=    8 SFac= 7.50D-01 NAtFMM=   80 NAOKFM=F Big=F
 Leave Link  301 at Wed May 26 19:13:35 2021, MaxMem=   13107200 cpu:       0.0
 (Enter /programs/64bit/g09/g09-gfortran/bin/l302.exe)
 NPDir=0 NMtPBC=     1 NCelOv=     1 NCel=       1 NClECP=     1 NCelD=      1
         NCelK=      1 NCelE2=     1 NClLst=     1 CellRange=     0.0.
 One-electron integrals computed using PRISM.
 NBasis=    68 RedAO= T  NBF=    68
 NBsUse=    68 1.00D-06 NBFU=    68
 Precomputing XC quadrature grid using
 IXCGrd= 2 IRadAn=           0 IRanWt=          -1 IRanGd=           0 AccXCQ= 1.00D-10.
 NRdTot=     510 NPtTot=       65100 NUsed=       68787 NTot=       68819
 NSgBfM=    68    68    68    68    68 NAtAll=     8     8.
 Leave Link  302 at Wed May 26 19:13:36 2021, MaxMem=   13107200 cpu:       0.1
 (Enter /programs/64bit/g09/g09-gfortran/bin/l303.exe)
 DipDrv:  MaxL=1.
 Leave Link  303 at Wed May 26 19:13:36 2021, MaxMem=   13107200 cpu:       0.0
 (Enter /programs/64bit/g09/g09-gfortran/bin/l401.exe)
 Harris functional with IExCor=  402 diagonalized for initial guess.
 ExpMin= 4.38D-02 ExpMax= 3.05D+03 ExpMxC= 4.57D+02 IAcc=2 IRadAn=         0 AccDes= 0.00D+00
 HarFok:  IExCor=  402 AccDes= 0.00D+00 IRadAn=         0 IDoV= 1
 ScaDFX=  1.000000  1.000000  1.000000  1.000000
 FoFCou: FMM=F IPFlag=           0 FMFlag=      100000 FMFlg1=           0
         NFxFlg=           0 DoJE=T BraDBF=F KetDBF=T FulRan=T
         Omega=  0.000000  0.000000  1.000000  0.000000  0.000000 ICntrl=     500 IOpCl=  0
         NMat0=    1 NMatS0=    1 NMatT0=    0 NMatD0=    1 NMtDS0=    0 NMtDT0=    0
         I1Cent=           4 NGrid=           0.
 Symmetry not used in FoFCou.
 Harris En= -79.7759754729465    
 Leave Link  401 at Wed May 26 19:13:36 2021, MaxMem=   13107200 cpu:       0.8
 (Enter /programs/64bit/g09/g09-gfortran/bin/l502.exe)
 Closed shell SCF:
 Requested convergence on RMS density matrix=1.00D-08 within 128 cycles.
 Requested convergence on MAX density matrix=1.00D-06.
 Requested convergence on             energy=1.00D-06.
 No special actions if energy rises.
 Using DIIS extrapolation, IDIIS=  1040.
 Two-electron integral symmetry not used.
        68702 words used for storage of precomputed grid.
 Keep R1 ints in memory in canonical form, NReq=3743087.
 IEnd=      101552 IEndB=      101552 NGot=    13107200 MDV=    10273922
 LenX=    10273922 LenY=    10268857
 Symmetry not used in FoFDir.
 MinBra= 0 MaxBra= 2 Meth= 1.
 IRaf=       0 NMat=   1 IRICut=       1 DoRegI=T DoRafI=F ISym2E= 0 JSym2E=0.

 Cycle   1  Pass 1  IDiag  1:
 E= -79.6038618938847    
 DIIS: error= 3.69D-02 at cycle   1 NSaved=   1.
 NSaved= 1 IEnMin= 1 EnMin= -79.6038618938847     IErMin= 1 ErrMin= 3.69D-02
 ErrMax= 3.69D-02 EMaxC= 1.00D-01 BMatC= 1.05D-01 BMatP= 1.05D-01
 IDIUse=3 WtCom= 6.31D-01 WtEn= 3.69D-01
 Coeff-Com:  0.100D+01
 Coeff-En:   0.100D+01
 Coeff:      0.100D+01
 Gap=     0.334 Goal=   None    Shift=    0.000
 GapD=    0.334 DampG=1.000 DampE=0.500 DampFc=0.5000 IDamp=-1.
 Damping current iteration by 5.00D-01
 RMSDP=1.30D-02 MaxDP=1.37D-01              OVMax= 2.15D-01

 Cycle   2  Pass 1  IDiag  1:
 E= -79.6526692765118     Delta-E=       -0.048807382627 Rises=F Damp=T
 DIIS: error= 9.88D-03 at cycle   2 NSaved=   2.
 NSaved= 2 IEnMin= 2 EnMin= -79.6526692765118     IErMin= 2 ErrMin= 9.88D-03
 ErrMax= 9.88D-03 EMaxC= 1.00D-01 BMatC= 4.87D-03 BMatP= 1.05D-01
 IDIUse=3 WtCom= 9.01D-01 WtEn= 9.88D-02
 Coeff-Com:  0.113D+00 0.887D+00
 Coeff-En:   0.194D+00 0.806D+00
 Coeff:      0.121D+00 0.879D+00
 Gap=     0.304 Goal=   None    Shift=    0.000
 RMSDP=2.74D-03 MaxDP=4.79D-02 DE=-4.88D-02 OVMax= 1.22D-01

 Cycle   3  Pass 1  IDiag  1:
 E= -79.7230266977105     Delta-E=       -0.070357421199 Rises=F Damp=F
 DIIS: error= 2.01D-03 at cycle   3 NSaved=   3.
 NSaved= 3 IEnMin= 3 EnMin= -79.7230266977105     IErMin= 3 ErrMin= 2.01D-03
 ErrMax= 2.01D-03 EMaxC= 1.00D-01 BMatC= 3.26D-04 BMatP= 4.87D-03
 IDIUse=3 WtCom= 9.80D-01 WtEn= 2.01D-02
 Coeff-Com:  0.901D-02 0.177D+00 0.814D+00
 Coeff-En:   0.000D+00 0.000D+00 0.100D+01
 Coeff:      0.882D-02 0.173D+00 0.818D+00
 Gap=     0.298 Goal=   None    Shift=    0.000
 RMSDP=4.98D-04 MaxDP=5.40D-03 DE=-7.04D-02 OVMax= 6.05D-03

 Cycle   4  Pass 1  IDiag  1:
 E= -79.7233395811872     Delta-E=       -0.000312883477 Rises=F Damp=F
 DIIS: error= 4.41D-04 at cycle   4 NSaved=   4.
 NSaved= 4 IEnMin= 4 EnMin= -79.7233395811872     IErMin= 4 ErrMin= 4.41D-04
 ErrMax= 4.41D-04 EMaxC= 1.00D-01 BMatC= 1.52D-05 BMatP= 3.26D-04
 IDIUse=3 WtCom= 9.96D-01 WtEn= 4.41D-03
 Coeff-Com: -0.728D-03-0.115D-02 0.171D+00 0.831D+00
 Coeff-En:   0.000D+00 0.000D+00 0.000D+00 0.100D+01
 Coeff:     -0.724D-03-0.114D-02 0.170D+00 0.832D+00
 Gap=     0.298 Goal=   None    Shift=    0.000
 RMSDP=1.28D-04 MaxDP=1.63D-03 DE=-3.13D-04 OVMax= 1.52D-03

 Cycle   5  Pass 1  IDiag  1:
 E= -79.7233538086584     Delta-E=       -0.000014227471 Rises=F Damp=F
 DIIS: error= 1.34D-04 at cycle   5 NSaved=   5.
 NSaved= 5 IEnMin= 5 EnMin= -79.7233538086584     IErMin= 5 ErrMin= 1.34D-04
 ErrMax= 1.34D-04 EMaxC= 1.00D-01 BMatC= 1.58D-06 BMatP= 1.52D-05
 IDIUse=3 WtCom= 9.99D-01 WtEn= 1.34D-03
 Coeff-Com: -0.241D-03-0.216D-02 0.803D-01 0.429D+00 0.493D+00
 Coeff-En:   0.000D+00 0.000D+00 0.000D+00 0.000D+00 0.100D+01
 Coeff:     -0.241D-03-0.216D-02 0.802D-01 0.428D+00 0.494D+00
 Gap=     0.298 Goal=   None    Shift=    0.000
 RMSDP=2.04D-05 MaxDP=2.80D-04 DE=-1.42D-05 OVMax= 4.55D-04

 Cycle   6  Pass 1  IDiag  1:
 E= -79.7233554008226     Delta-E=       -0.000001592164 Rises=F Damp=F
 DIIS: error= 2.86D-05 at cycle   6 NSaved=   6.
 NSaved= 6 IEnMin= 6 EnMin= -79.7233554008226     IErMin= 6 ErrMin= 2.86D-05
 ErrMax= 2.86D-05 EMaxC= 1.00D-01 BMatC= 6.86D-08 BMatP= 1.58D-06
 IDIUse=1 WtCom= 1.00D+00 WtEn= 0.00D+00
 Coeff-Com:  0.146D-03-0.758D-03 0.103D-01 0.643D-01 0.193D+00 0.733D+00
 Coeff:      0.146D-03-0.758D-03 0.103D-01 0.643D-01 0.193D+00 0.733D+00
 Gap=     0.298 Goal=   None    Shift=    0.000
 RMSDP=4.10D-06 MaxDP=5.87D-05 DE=-1.59D-06 OVMax= 8.87D-05

 Cycle   7  Pass 1  IDiag  1:
 E= -79.7233554700745     Delta-E=       -0.000000069252 Rises=F Damp=F
 DIIS: error= 3.72D-06 at cycle   7 NSaved=   7.
 NSaved= 7 IEnMin= 7 EnMin= -79.7233554700745     IErMin= 7 ErrMin= 3.72D-06
 ErrMax= 3.72D-06 EMaxC= 1.00D-01 BMatC= 1.38D-09 BMatP= 6.86D-08
 IDIUse=1 WtCom= 1.00D+00 WtEn= 0.00D+00
 Coeff-Com:  0.758D-04-0.147D-03-0.112D-02-0.293D-02 0.317D-01 0.194D+00
 Coeff-Com:  0.779D+00
 Coeff:      0.758D-04-0.147D-03-0.112D-02-0.293D-02 0.317D-01 0.194D+00
 Coeff:      0.779D+00
 Gap=     0.298 Goal=   None    Shift=    0.000
 RMSDP=1.14D-06 MaxDP=1.15D-05 DE=-6.93D-08 OVMax= 1.45D-05

 Cycle   8  Pass 1  IDiag  1:
 E= -79.7233554716433     Delta-E=       -0.000000001569 Rises=F Damp=F
 DIIS: error= 5.07D-07 at cycle   8 NSaved=   8.
 NSaved= 8 IEnMin= 8 EnMin= -79.7233554716433     IErMin= 8 ErrMin= 5.07D-07
 ErrMax= 5.07D-07 EMaxC= 1.00D-01 BMatC= 2.26D-11 BMatP= 1.38D-09
 IDIUse=1 WtCom= 1.00D+00 WtEn= 0.00D+00
 Coeff-Com:  0.102D-04-0.104D-04-0.438D-03-0.191D-02 0.165D-02 0.171D-01
 Coeff-Com:  0.153D+00 0.831D+00
 Coeff:      0.102D-04-0.104D-04-0.438D-03-0.191D-02 0.165D-02 0.171D-01
 Coeff:      0.153D+00 0.831D+00
 Gap=     0.298 Goal=   None    Shift=    0.000
 RMSDP=1.52D-07 MaxDP=1.91D-06 DE=-1.57D-09 OVMax= 2.27D-06

 Cycle   9  Pass 1  IDiag  1:
 E= -79.7233554716709     Delta-E=       -0.000000000028 Rises=F Damp=F
 DIIS: error= 1.00D-07 at cycle   9 NSaved=   9.
 NSaved= 9 IEnMin= 9 EnMin= -79.7233554716709     IErMin= 9 ErrMin= 1.00D-07
 ErrMax= 1.00D-07 EMaxC= 1.00D-01 BMatC= 9.00D-13 BMatP= 2.26D-11
 IDIUse=1 WtCom= 1.00D+00 WtEn= 0.00D+00
 Coeff-Com: -0.859D-06 0.199D-05-0.459D-04-0.216D-03-0.507D-03-0.246D-02
 Coeff-Com:  0.808D-02 0.180D+00 0.815D+00
 Coeff:     -0.859D-06 0.199D-05-0.459D-04-0.216D-03-0.507D-03-0.246D-02
 Coeff:      0.808D-02 0.180D+00 0.815D+00
 Gap=     0.298 Goal=   None    Shift=    0.000
 RMSDP=2.84D-08 MaxDP=3.36D-07 DE=-2.75D-11 OVMax= 4.72D-07

 Cycle  10  Pass 1  IDiag  1:
 E= -79.7233554716722     Delta-E=       -0.000000000001 Rises=F Damp=F
 DIIS: error= 1.81D-08 at cycle  10 NSaved=  10.
 NSaved=10 IEnMin=10 EnMin= -79.7233554716722     IErMin=10 ErrMin= 1.81D-08
 ErrMax= 1.81D-08 EMaxC= 1.00D-01 BMatC= 2.58D-14 BMatP= 9.00D-13
 IDIUse=1 WtCom= 1.00D+00 WtEn= 0.00D+00
 Coeff-Com: -0.562D-06 0.713D-06-0.324D-05-0.163D-04-0.203D-03-0.117D-02
 Coeff-Com: -0.208D-02 0.222D-01 0.195D+00 0.786D+00
 Coeff:     -0.562D-06 0.713D-06-0.324D-05-0.163D-04-0.203D-03-0.117D-02
 Coeff:     -0.208D-02 0.222D-01 0.195D+00 0.786D+00
 Gap=     0.298 Goal=   None    Shift=    0.000
 RMSDP=4.57D-09 MaxDP=4.06D-08 DE=-1.34D-12 OVMax= 5.84D-08

 SCF Done:  E(RB3LYP) =  -79.7233554717     A.U. after   10 cycles
             Convg  =    0.4570D-08             -V/T =  2.0090
 KE= 7.901078412320D+01 PE=-2.672415999700D+02 EE= 6.663301753953D+01
 Leave Link  502 at Wed May 26 19:13:44 2021, MaxMem=   13107200 cpu:       7.4
 (Enter /programs/64bit/g09/g09-gfortran/bin/l601.exe)
 Copying SCF densities to generalized density rwf, IOpCl= 0 IROHF=0.

 **********************************************************************

            Population analysis using the SCF density.

 **********************************************************************

 Alpha  occ. eigenvalues --  -10.19413 -10.19009  -0.76968  -0.62688  -0.47705
 Alpha  occ. eigenvalues --   -0.43815  -0.36722  -0.32855  -0.28976
 Alpha virt. eigenvalues --    0.00839   0.01355   0.04915   0.05672   0.06708
 Alpha virt. eigenvalues --    0.08194   0.08794   0.11140   0.14702   0.15978
 Alpha virt. eigenvalues --    0.19874   0.21626   0.25958   0.30508   0.34413
 Alpha virt. eigenvalues --    0.64434   0.64922   0.65882   0.69491   0.72803
 Alpha virt. eigenvalues --    0.75625   0.88448   0.89155   0.94477   0.98115
 Alpha virt. eigenvalues --    1.03726   1.05717   1.07577   1.22002   1.29315
 Alpha virt. eigenvalues --    1.45007   1.53016   1.72387   1.82044   1.94887
 Alpha virt. eigenvalues --    1.99656   2.05951   2.12746   2.16071   2.19871
 Alpha virt. eigenvalues --    2.24939   2.26199   2.35586   2.42280   2.59442
 Alpha virt. eigenvalues --    2.66656   2.68470   2.74463   2.76082   2.89569
 Alpha virt. eigenvalues --    2.94097   3.22658   3.29035   3.37436   3.43014
 Alpha virt. eigenvalues --    3.53081   3.71200   4.28240   4.77077
          Condensed to atoms (all electrons):
              1          2          3          4          5          6
     1  C    5.272017   0.108881   0.351001   0.454783   0.439657  -0.105848
     2  C    0.108881   5.246000   0.021088  -0.106187  -0.092573   0.457921
     3  H    0.351001   0.021088   0.538277  -0.051803  -0.017980   0.004703
     4  H    0.454783  -0.106187  -0.051803   0.628544  -0.040524  -0.007965
     5  H    0.439657  -0.092573  -0.017980  -0.040524   0.577363  -0.021512
     6  H   -0.105848   0.457921   0.004703  -0.007965  -0.021512   0.603112
     7  H   -0.111321   0.454231   0.002684  -0.031722   0.007752  -0.014999
     8  H    0.044535   0.331051  -0.001088   0.005213   0.000541  -0.047255
              7          8
     1  C   -0.111321   0.044535
     2  C    0.454231   0.331051
     3  H    0.002684  -0.001088
     4  H   -0.031722   0.005213
     5  H    0.007752   0.000541
     6  H   -0.014999  -0.047255
     7  H    0.597181  -0.042681
     8  H   -0.042681   0.556339
 Mulliken atomic charges:
              1
     1  C   -0.453705
     2  C   -0.420412
     3  H    0.153118
     4  H    0.149661
     5  H    0.147277
     6  H    0.131843
     7  H    0.138873
     8  H    0.153345
 Sum of Mulliken atomic charges =  -0.00000
 Mulliken charges with hydrogens summed into heavy atoms:
              1
     1  C   -0.003648
     2  C    0.003648
 Sum of Mulliken charges with hydrogens summed into heavy atoms =  -0.00000
 Electronic spatial extent (au):  <R**2>=            157.1489
 Charge=              0.0000 electrons
 Dipole moment (field-independent basis, Debye):
    X=             -0.2600    Y=             -0.5271    Z=             -0.0245  Tot=              0.5882
 Quadrupole moment (field-independent basis, Debye-Ang):
   XX=            -15.3891   YY=            -16.2756   ZZ=            -14.8473
   XY=             -0.9538   XZ=             -0.6788   YZ=              0.2457
 Traceless Quadrupole moment (field-independent basis, Debye-Ang):
   XX=              0.1148   YY=             -0.7716   ZZ=              0.6567
   XY=             -0.9538   XZ=             -0.6788   YZ=              0.2457
 Octapole moment (field-independent basis, Debye-Ang**2):
  XXX=              1.1670  YYY=              1.7986  ZZZ=            -36.4883  XYY=              0.9203
  XXY=              0.9479  XXZ=            -12.4564  XZZ=              1.1565  YZZ=              1.3881
  YYZ=            -13.8966  XYZ=             -1.0234
 Hexadecapole moment (field-independent basis, Debye-Ang**3):
 XXXX=            -30.7576 YYYY=            -30.1750 ZZZZ=           -156.4004 XXXY=             -0.0315
 XXXZ=              0.2955 YYYX=              0.3027 YYYZ=              1.1634 ZZZX=              1.6506
 ZZZY=              4.3864 XXYY=            -10.3953 XXZZ=            -33.6247 YYZZ=            -36.2081
 XXYZ=              0.5629 YYXZ=              0.7840 ZZXY=             -1.2577
 N-N= 4.187444283564D+01 E-N=-2.672415996542D+02  KE= 7.901078412320D+01
 No NMR shielding tensors so no spin-rotation constants.
 Leave Link  601 at Wed May 26 19:13:44 2021, MaxMem=   13107200 cpu:       0.1
 (Enter /programs/64bit/g09/g09-gfortran/bin/l701.exe)
 Compute integral first derivatives.
 ... and contract with generalized density number  0.
 Leave Link  701 at Wed May 26 19:13:44 2021, MaxMem=   13107200 cpu:       0.1
 (Enter /programs/64bit/g09/g09-gfortran/bin/l702.exe)
 L702 exits ... SP integral derivatives will be done elsewhere.
 Leave Link  702 at Wed May 26 19:13:44 2021, MaxMem=   13107200 cpu:       0.0
 (Enter /programs/64bit/g09/g09-gfortran/bin/l703.exe)
 Compute integral first derivatives, UseDBF=F ICtDFT=           0.
 Integral derivatives from FoFDir, PRISM(SPDF).
 Calling FoFJK, ICntrl=      2127 FMM=F ISym2X=0 I1Cent= 0 IOpClX= 0 NMat=1 NMatS=1 NMatT=0.
 FoFCou: FMM=F IPFlag=           0 FMFlag=      100000 FMFlg1=         800
         NFxFlg=           0 DoJE=F BraDBF=F KetDBF=F FulRan=T
         Omega=  0.000000  0.000000  1.000000  0.000000  0.000000 ICntrl=    2127 IOpCl=  0
         NMat0=    1 NMatS0=    1 NMatT0=    0 NMatD0=    1 NMtDS0=    0 NMtDT0=    0
         I1Cent=           0 NGrid=           0.
 Symmetry not used in FoFCou.
 Leave Link  703 at Wed May 26 19:13:46 2021, MaxMem=   13107200 cpu:       1.6
 (Enter /programs/64bit/g09/g09-gfortran/bin/l716.exe)
 Dipole        =-1.02309248D-01-2.07362015D-01-9.63203320D-03
 -------------------------------------------------------------------
 Center     Atomic                   Forces (Hartrees/Bohr)
 Number     Number              X              Y              Z
 -------------------------------------------------------------------
      1        6          -0.040582588   -0.003021726    0.015731021
      2        6           0.024237010   -0.030608322    0.006139229
      3        1           0.023891162    0.034255187    0.009211472
      4        1          -0.010690387   -0.015016073   -0.010004385
      5        1           0.000744109    0.010987276   -0.045123492
      6        1          -0.000344003   -0.024579788    0.018203559
      7        1          -0.019985227   -0.011040281    0.025140709
      8        1           0.022729925    0.039023727   -0.019298112
 -------------------------------------------------------------------
 Cartesian Forces:  Max     0.045123492 RMS     0.022723678
 -----------------------------------------------------------------------------------------------
                       Internal Coordinate Forces (Hartree/Bohr or radian)
  Cent   Atom   N1       Length/X         N2         Alpha/Y        N3         Beta/Z          J
 -----------------------------------------------------------------------------------------------
      1  C 
      2  C        1   0.030185(     1)
      3  H        1   0.003609(     2)      2  -0.052152(     8)
      4  H        1   0.016549(     3)      2   0.020599(     9)      3   0.016080(    14)     0
      5  H        1   0.002067(     4)      2   0.092754(    10)      3   0.021515(    15)     0
      6  H        2   0.000790(     5)      1   0.037389(    11)      3   0.003244(    16)     0
      7  H        2  -0.000085(     6)      1   0.052137(    12)      6  -0.047239(    17)     0
      8  H        2   0.000917(     7)      1  -0.102217(    13)      6  -0.000026(    18)     0
 -----------------------------------------------------------------------------------------------
 Internal  Forces:  Max     0.102217205 RMS     0.041149728
 Force constants in Cartesian coordinates: 
                1             2             3             4             5 
      1  0.658434D+00
      2 -0.445542D-01  0.615886D+00
      3 -0.125313D+00 -0.850302D-02  0.688929D+00
      4 -0.108794D+00 -0.386435D-02  0.139633D-01  0.680866D+00
      5 -0.621657D-02 -0.100413D+00  0.154971D-01 -0.858141D-01  0.563156D+00
      6 -0.574123D-02 -0.101262D-01 -0.222510D+00  0.458770D-01  0.768041D-01
      7 -0.163461D+00  0.101698D-01  0.830474D-01  0.243191D-01  0.604037D-03
      8  0.230437D-01 -0.862096D-01 -0.140839D-01 -0.208378D-02  0.119018D-01
      9  0.104012D+00  0.568076D-02 -0.303276D+00  0.135844D-01  0.337409D-03
     10 -0.786736D-01 -0.684477D-01  0.173442D-01  0.823174D-03 -0.319997D-03
     11 -0.507488D-01 -0.356158D+00 -0.301239D-03 -0.182134D-03 -0.180600D-03
     12  0.166384D-01 -0.655161D-02 -0.718184D-01 -0.402880D-02 -0.255342D-01
     13 -0.325135D+00  0.996576D-01  0.109585D-01  0.535705D-03  0.216074D-02
     14  0.697380D-01 -0.102121D+00  0.739107D-02  0.317410D-02  0.470181D-02
     15  0.466342D-02  0.937387D-02 -0.913251D-01 -0.235189D-01  0.969968D-02
     16  0.729688D-03 -0.863648D-05  0.000000D+00 -0.350182D+00  0.589792D-03
     17 -0.112380D-02  0.293622D-02  0.000000D+00 -0.160770D-01 -0.800909D-01
     18  0.254789D-01 -0.623091D-03  0.000000D+00  0.184691D-01 -0.926926D-02
     19  0.381511D-02  0.180986D-02  0.000000D+00 -0.142634D+00  0.102883D+00
     20  0.175590D-02  0.199809D-02  0.000000D+00  0.120054D+00 -0.277336D+00
     21 -0.136302D-01  0.212915D-01  0.000000D+00 -0.182421D-01  0.122341D-01
     22  0.130848D-01  0.523753D-02  0.000000D+00 -0.104934D+00 -0.138869D-01
     23  0.810567D-02  0.240801D-01  0.000000D+00 -0.152066D-01 -0.121740D+00
     24 -0.610749D-02 -0.105421D-01  0.000000D+00 -0.461039D-01 -0.797689D-01
                6             7             8             9            10 
      6  0.681099D+00
      7  0.000000D+00  0.139218D+00
      8  0.000000D+00 -0.685065D-02  0.598424D-01
      9  0.000000D+00 -0.117554D+00 -0.382670D-02  0.284001D+00
     10  0.000000D+00  0.550367D-03 -0.195952D-01  0.307429D-03  0.626953D-01
     11  0.000000D+00 -0.510690D-04  0.375136D-02 -0.285266D-04  0.535542D-01
     12  0.000000D+00  0.492804D-02  0.329254D-01  0.275275D-02 -0.171143D-01
     13  0.000000D+00 -0.626290D-03  0.410567D-02 -0.349838D-03  0.139322D-01
     14  0.000000D+00 -0.387215D-02  0.115251D-01 -0.216294D-02  0.352038D-01
     15  0.000000D+00  0.295781D-01 -0.150148D-01  0.165220D-01 -0.537299D-03
     16  0.780017D-02  0.000000D+00  0.353185D-05  0.000000D+00  0.172066D-05
     17 -0.817573D-02  0.000000D+00  0.111566D-02  0.000000D+00  0.543534D-03
     18 -0.787224D-01  0.000000D+00  0.000000D+00  0.000000D+00  0.000000D+00
     19 -0.117648D-01  0.000000D+00 -0.944964D-03  0.000000D+00 -0.460372D-03
     20  0.387762D-02  0.000000D+00 -0.576627D-03  0.000000D+00 -0.280924D-03
     21 -0.772149D-01  0.000000D+00  0.000000D+00  0.000000D+00  0.000000D+00
     22 -0.361711D-01  0.000000D+00  0.232166D-02  0.000000D+00  0.113108D-02
     23 -0.623797D-01  0.000000D+00 -0.135018D-02  0.000000D+00 -0.657787D-03
     24 -0.302652D+00  0.000000D+00  0.000000D+00  0.000000D+00  0.000000D+00
               11            12            13            14            15 
     11  0.358718D+00
     12  0.234573D-03  0.689895D-01
     13 -0.245399D-02 -0.423274D-03  0.311543D+00
     14 -0.620075D-02 -0.107415D-02 -0.103616D+00  0.917260D-01
     15  0.951928D-04  0.760817D-04 -0.101854D-01 -0.415398D-02  0.747270D-01
     16  0.000000D+00  0.000000D+00  0.000000D+00 -0.160599D-05  0.000000D+00
     17 -0.955834D-04  0.000000D+00 -0.201011D-03 -0.507311D-03  0.000000D+00
     18  0.000000D+00  0.000000D+00  0.000000D+00  0.000000D+00  0.000000D+00
     19  0.809588D-04  0.000000D+00  0.170255D-03  0.429691D-03  0.000000D+00
     20  0.494020D-04  0.000000D+00  0.103892D-03  0.262202D-03  0.000000D+00
     21  0.000000D+00  0.000000D+00  0.000000D+00  0.000000D+00  0.000000D+00
     22 -0.198906D-03  0.000000D+00 -0.418298D-03 -0.105570D-02  0.000000D+00
     23  0.115675D-03  0.000000D+00  0.243264D-03  0.613949D-03  0.000000D+00
     24  0.000000D+00  0.000000D+00  0.000000D+00  0.000000D+00  0.000000D+00
               16            17            18            19            20 
     16  0.350430D+00
     17 -0.673694D-03  0.505259D-01
     18 -0.800679D-02  0.960607D-02  0.713852D-01
     19  0.449256D-04  0.321074D-01 -0.197079D-02  0.128269D+00
     20  0.274108D-04  0.195019D-01 -0.119277D-02 -0.129025D+00  0.261762D+00
     21  0.000000D+00 -0.215405D-02  0.234199D-03  0.133225D-01 -0.322018D-02
     22 -0.102376D-02 -0.145754D-01 -0.339704D-01  0.107942D-01  0.736536D-02
     23  0.635036D-04  0.661420D-02  0.147906D-02 -0.734044D-02 -0.566084D-02
     24  0.206704D-03  0.723723D-03  0.710295D-02  0.413118D-03  0.535334D-03
               21            22            23            24 
     21  0.702327D-01
     22  0.185499D-01  0.813663D-01
     23 -0.281513D-01  0.147923D-01  0.973270D-01
     24  0.674807D-02  0.515916D-01  0.890520D-01  0.288801D+00
 Force constants in internal coordinates: 
                1             2             3             4             5 
      1  0.222510D+00
      2  0.000000D+00  0.349665D+00
      3  0.000000D+00  0.000000D+00  0.368134D+00
      4  0.000000D+00  0.000000D+00  0.000000D+00  0.352911D+00
      5  0.000000D+00  0.000000D+00  0.000000D+00  0.000000D+00  0.350663D+00
      6  0.000000D+00  0.000000D+00  0.000000D+00  0.000000D+00  0.000000D+00
      7  0.000000D+00  0.000000D+00  0.000000D+00  0.000000D+00  0.000000D+00
      8  0.000000D+00  0.000000D+00  0.000000D+00  0.000000D+00  0.000000D+00
      9  0.000000D+00  0.000000D+00  0.000000D+00  0.000000D+00  0.000000D+00
     10  0.000000D+00  0.000000D+00  0.000000D+00  0.000000D+00  0.000000D+00
     11  0.000000D+00  0.000000D+00  0.000000D+00  0.000000D+00  0.000000D+00
     12  0.000000D+00  0.000000D+00  0.000000D+00  0.000000D+00  0.000000D+00
     13  0.000000D+00  0.000000D+00  0.000000D+00  0.000000D+00  0.000000D+00
     14  0.000000D+00  0.000000D+00  0.000000D+00  0.000000D+00  0.000000D+00
     15  0.000000D+00  0.000000D+00  0.000000D+00  0.000000D+00  0.000000D+00
     16  0.000000D+00  0.000000D+00  0.000000D+00  0.000000D+00  0.000000D+00
     17  0.000000D+00  0.000000D+00  0.000000D+00  0.000000D+00  0.000000D+00
     18  0.000000D+00  0.000000D+00  0.000000D+00  0.000000D+00  0.000000D+00
                6             7             8             9            10 
      6  0.340630D+00
      7  0.000000D+00  0.335070D+00
      8  0.000000D+00  0.000000D+00  0.311312D+00
      9  0.000000D+00  0.000000D+00  0.235553D-01  0.283716D+00
     10  0.000000D+00  0.000000D+00  0.143088D+00  0.316805D-03  0.313714D+00
     11  0.000000D+00  0.000000D+00  0.000000D+00  0.000000D+00  0.000000D+00
     12  0.000000D+00  0.000000D+00  0.000000D+00  0.000000D+00  0.000000D+00
     13  0.000000D+00  0.000000D+00  0.000000D+00  0.000000D+00  0.000000D+00
     14  0.000000D+00  0.000000D+00  0.263297D-02 -0.695104D-01 -0.227197D-02
     15  0.000000D+00  0.000000D+00  0.185157D-01  0.480360D-02  0.320610D-01
     16  0.000000D+00  0.000000D+00  0.000000D+00  0.000000D+00  0.000000D+00
     17  0.000000D+00  0.000000D+00  0.000000D+00  0.000000D+00  0.000000D+00
     18  0.000000D+00  0.000000D+00  0.000000D+00  0.000000D+00  0.000000D+00
               11            12            13            14            15 
     11  0.300682D+00
     12  0.998704D-03  0.300101D+00
     13  0.741585D-01  0.710373D-01  0.259493D+00
     14  0.000000D+00  0.000000D+00  0.000000D+00  0.219274D+00
     15  0.000000D+00  0.000000D+00  0.000000D+00 -0.159935D+00  0.212832D+00
     16  0.255758D-02 -0.262141D-02 -0.178616D-03  0.690000D-02  0.690000D-02
     17 -0.981083D-02  0.416321D-01  0.663928D-02  0.230000D-02  0.230000D-02
     18  0.528544D-01 -0.534315D-01  0.738689D-03  0.230000D-02  0.230000D-02
               16            17            18 
     16  0.476930D-01
     17  0.253679D-01  0.213356D+00
     18 -0.321207D-02 -0.281314D-01  0.528559D-01
 Leave Link  716 at Wed May 26 19:13:46 2021, MaxMem=   13107200 cpu:       0.0
 (Enter /programs/64bit/g09/g09-gfortran/bin/l103.exe)

 GradGradGradGradGradGradGradGradGradGradGradGradGradGradGradGradGradGrad
 Berny optimization.
 Search for a local minimum.
 Step number   1 out of a maximum of    2
 All quantities printed in internal units (Hartrees-Bohrs-Radians)
 Second derivative matrix not updated -- first step.
 The second derivative matrix:
                          d1        a1        t1        d2        a2
           d1           0.22251
           a1           0.00000   0.31131
           t1           0.00000   0.00263   0.21927
           d2           0.00000   0.00000   0.00000   0.34966
           a2           0.00000   0.02356  -0.06951   0.00000   0.28372
           t2           0.00000   0.01852  -0.15993   0.00000   0.00480
           d3           0.00000  -0.00000   0.00000  -0.00000   0.00000
           d4           0.00000   0.00000   0.00000   0.00000  -0.00000
           a3           0.00000   0.14309  -0.00227   0.00000   0.00032
           d5          -0.00000   0.00000   0.00000   0.00000   0.00000
           a4           0.00000   0.00000  -0.00000   0.00000  -0.00000
           t3           0.00000   0.00000   0.00690   0.00000  -0.00000
           d6           0.00000   0.00000  -0.00000   0.00000   0.00000
           a5           0.00000   0.00000   0.00000   0.00000  -0.00000
           t4           0.00000   0.00000   0.00230   0.00000  -0.00000
           d7           0.00000   0.00000   0.00000   0.00000   0.00000
           a6          -0.00000   0.00000   0.00000   0.00000  -0.00000
           t5           0.00000   0.00000   0.00230   0.00000  -0.00000
                          t2        d3        d4        a3        d5
           t2           0.21283
           d3          -0.00000   0.36813
           d4           0.00000  -0.00000   0.35291
           a3           0.03206   0.00000  -0.00000   0.31371
           d5           0.00000   0.00000  -0.00000  -0.00000   0.35066
           a4          -0.00000  -0.00000  -0.00000  -0.00000  -0.00000
           t3           0.00690   0.00000  -0.00000   0.00000  -0.00000
           d6           0.00000   0.00000   0.00000   0.00000   0.00000
           a5          -0.00000  -0.00000  -0.00000  -0.00000  -0.00000
           t4           0.00230  -0.00000  -0.00000   0.00000   0.00000
           d7           0.00000   0.00000   0.00000   0.00000   0.00000
           a6          -0.00000  -0.00000   0.00000   0.00000   0.00000
           t5           0.00230   0.00000  -0.00000   0.00000  -0.00000
                          a4        t3        d6        a5        t4
           a4           0.30068
           t3           0.00256   0.04769
           d6           0.00000  -0.00000   0.34063
           a5           0.00100  -0.00262   0.00000   0.30010
           t4          -0.00981   0.02537  -0.00000   0.04163   0.21336
           d7           0.00000   0.00000  -0.00000  -0.00000  -0.00000
           a6           0.07416  -0.00018   0.00000   0.07104   0.00664
           t5           0.05285  -0.00321   0.00000  -0.05343  -0.02813
                          d7        a6        t5
           d7           0.33507
           a6          -0.00000   0.25949
           t5           0.00000   0.00074   0.05286
     Eigenvalues --- 1000.000001000.000001000.000001000.000001000.00000
     Eigenvalues --- 1000.000001000.000001000.000001000.000001000.00000
     Eigenvalues --- 1000.000001000.000001000.000001000.000001000.00000
     Eigenvalues --- 1000.000001000.000001000.00000
 Angle between quadratic step and forces=  90.00 degrees.
 Linear search not attempted -- first point.
 Variable       Old X    -DE/DX   Delta X   Delta X   Delta X     New X
                                 (Linear)    (Quad)   (Total)
    d1        3.06759   0.03019   0.00000   0.00000   0.00000   3.06759
    a1        2.63218  -0.05215   0.00000   0.00000   0.00000   2.63218
    t1        1.74487   0.01608   0.00000   0.00000   0.00000   1.74487
    d2        2.05729   0.00361   0.00000   0.00000   0.00000   2.05729
    a2        1.56166   0.02060   0.00000   0.00000   0.00000   1.56166
    t2       -2.76434   0.02151   0.00000   0.00000   0.00000  -2.76434
    d3        2.02828   0.01655   0.00000   0.00000   0.00000   2.02828
    d4        2.05205   0.00207   0.00000   0.00000   0.00000   2.05205
    a3        1.54227   0.09275   0.00000   0.00000   0.00000   1.54227
    d5        2.05567   0.00079   0.00000   0.00000   0.00000   2.05567
    a4        1.59957   0.03739   0.00000   0.00000   0.00000   1.59957
    t3        3.13843   0.00324   0.00000   0.00000   0.00000   3.13843
    d6        2.07224  -0.00009   0.00000   0.00000   0.00000   2.07224
    a5        1.60661   0.05214   0.00000   0.00000   0.00000   1.60661
    t4        2.12186  -0.04724   0.00000   0.00000   0.00000   2.12186
    d7        2.08170   0.00092   0.00000   0.00000   0.00000   2.08170
    a6        2.71909  -0.10222   0.00000   0.00000   0.00000   2.71909
    t5       -2.09438  -0.00003   0.00000   0.00000   0.00000  -2.09438
         Item               Value     Threshold  Converged?
 Maximum Force            0.000000     0.000450     YES
 RMS     Force            0.000000     0.000300     YES
 Maximum Displacement     0.000000     0.001800     YES
 RMS     Displacement     0.000000     0.001200     YES
 Predicted change in Energy=-0.000000D+00
 Optimization completed.
    -- Stationary point found.
                       ----------------------------
                       !   Optimized Parameters   !
                       ! (Angstroms and Degrees)  !
 ----------------------                            ----------------------
 !      Name          Value   Derivative information (Atomic Units)     !
 ------------------------------------------------------------------------
 !       d1          1.6233   -DE/DX =    0.0302                        !
 !       a1        150.8128   -DE/DX =   -0.0522                        !
 !       t1         99.9738   -DE/DX =    0.0161                        !
 !       d2          1.0887   -DE/DX =    0.0036                        !
 !       a2         89.4765   -DE/DX =    0.0206                        !
 !       t2       -158.3851   -DE/DX =    0.0215                        !
 !       d3          1.0733   -DE/DX =    0.0165                        !
 !       d4          1.0859   -DE/DX =    0.0021                        !
 !       a3         88.3653   -DE/DX =    0.0928                        !
 !       d5          1.0878   -DE/DX =    0.0008                        !
 !       a4         91.6484   -DE/DX =    0.0374                        !
 !       t3        179.8186   -DE/DX =    0.0032                        !
 !       d6          1.0966   -DE/DX =   -0.0001                        !
 !       a5         92.052    -DE/DX =    0.0521                        !
 !       t4        121.5734   -DE/DX =   -0.0472                        !
 !       d7          1.1016   -DE/DX =    0.0009                        !
 !       a6        155.7924   -DE/DX =   -0.1022                        !
 !       t5       -119.9991   -DE/DX =    0.0                           !
 ------------------------------------------------------------------------
 GradGradGradGradGradGradGradGradGradGradGradGradGradGradGradGradGradGrad

 Leave Link  103 at Wed May 26 19:13:46 2021, MaxMem=   13107200 cpu:       0.0
 (Enter /programs/64bit/g09/g09-gfortran/bin/l9999.exe)
 1\1\GINC-MOLMOD\Force\RB3LYP\6-31+G(d,p)\C2H6\OSPITE\26-May-2021\1\\#p
  b3lyp/6-31+g(d,p) force nosym\\c2h6 molecule\\0,1\C\C,1,d1\H,1,d2,2,a
 1\H,1,d3,2,a2,3,t1,0\H,1,d4,2,a3,3,t2,0\H,2,d5,1,a4,3,t3,0\H,2,d6,1,a5
 ,6,t4,0\H,2,d7,1,a6,6,t5,0\\d1=1.62329977\a1=150.81276027\t1=99.973791
 83\d2=1.08867251\a2=89.47653083\t2=-158.38514977\d3=1.07332205\d4=1.08
 589745\a3=88.3653034\d5=1.08781584\a4=91.64842634\t3=179.81861953\d6=1
 .09658158\a5=92.05203905\t4=121.57337642\d7=1.10158912\a6=155.79242143
 \t5=-119.99905297\\Version=EM64L-G09RevA.02\HF=-79.7233555\RMSD=4.570e
 -09\RMSF=2.272e-02\Dipole=-0.1023092,-0.207362,-0.009632\Quadrupole=0.
 0853838,-0.5736443,0.4882605,-0.7091299,-0.5046452,0.1826879\PG=C01 [X
 (C2H6)]\\@


 Cherishing children is the mark of a civilized society.
 -- Joan Ganz Cooney
 Job cpu time:  0 days  0 hours  0 minutes 10.3 seconds.
 File lengths (MBytes):  RWF=      5 Int=      0 D2E=      0 Chk=      1 Scr=      1
 Normal termination of Gaussian 09 at Wed May 26 19:13:46 2021.
