 Entering Gaussian System, Link 0=g09
 Input=c2h6_017.com
 Output=c2h6_017.log
 Initial command:
 /programs/64bit/g09/g09-gfortran/bin/l1.exe /data/scratch/Gau-6273.inp -scrdir=/data/scratch/
 Entering Link 1 = /programs/64bit/g09/g09-gfortran/bin/l1.exe PID=      6274.
  
 Copyright (c) 1988,1990,1992,1993,1995,1998,2003,2009, Gaussian, Inc.
                  All Rights Reserved.
  
 This is part of the Gaussian(R) 09 program.  It is based on
 the Gaussian(R) 03 system (copyright 2003, Gaussian, Inc.),
 the Gaussian(R) 98 system (copyright 1998, Gaussian, Inc.),
 the Gaussian(R) 94 system (copyright 1995, Gaussian, Inc.),
 the Gaussian 92(TM) system (copyright 1992, Gaussian, Inc.),
 the Gaussian 90(TM) system (copyright 1990, Gaussian, Inc.),
 the Gaussian 88(TM) system (copyright 1988, Gaussian, Inc.),
 the Gaussian 86(TM) system (copyright 1986, Carnegie Mellon
 University), and the Gaussian 82(TM) system (copyright 1983,
 Carnegie Mellon University). Gaussian is a federally registered
 trademark of Gaussian, Inc.
  
 This software contains proprietary and confidential information,
 including trade secrets, belonging to Gaussian, Inc.
  
 This software is provided under written license and may be
 used, copied, transmitted, or stored only in accord with that
 written license.
  
 The following legend is applicable only to US Government
 contracts under FAR:
  
                    RESTRICTED RIGHTS LEGEND
  
 Use, reproduction and disclosure by the US Government is
 subject to restrictions as set forth in subparagraphs (a)
 and (c) of the Commercial Computer Software - Restricted
 Rights clause in FAR 52.227-19.
  
 Gaussian, Inc.
 340 Quinnipiac St., Bldg. 40, Wallingford CT 06492
  
  
 ---------------------------------------------------------------
 Warning -- This program may not be used in any manner that
 competes with the business of Gaussian, Inc. or will provide
 assistance to any competitor of Gaussian, Inc.  The licensee
 of this program is prohibited from giving any competitor of
 Gaussian, Inc. access to this program.  By using this program,
 the user acknowledges that Gaussian, Inc. is engaged in the
 business of creating and licensing software in the field of
 computational chemistry and represents and warrants to the
 licensee that it is not a competitor of Gaussian, Inc. and that
 it will not use this program in any manner prohibited above.
 ---------------------------------------------------------------
  

 Cite this work as:
 Gaussian 09, Revision A.02,
 M. J. Frisch, G. W. Trucks, H. B. Schlegel, G. E. Scuseria, 
 M. A. Robb, J. R. Cheeseman, G. Scalmani, V. Barone, B. Mennucci, 
 G. A. Petersson, H. Nakatsuji, M. Caricato, X. Li, H. P. Hratchian, 
 A. F. Izmaylov, J. Bloino, G. Zheng, J. L. Sonnenberg, M. Hada, 
 M. Ehara, K. Toyota, R. Fukuda, J. Hasegawa, M. Ishida, T. Nakajima, 
 Y. Honda, O. Kitao, H. Nakai, T. Vreven, J. A. Montgomery, Jr., 
 J. E. Peralta, F. Ogliaro, M. Bearpark, J. J. Heyd, E. Brothers, 
 K. N. Kudin, V. N. Staroverov, R. Kobayashi, J. Normand, 
 K. Raghavachari, A. Rendell, J. C. Burant, S. S. Iyengar, J. Tomasi, 
 M. Cossi, N. Rega, J. M. Millam, M. Klene, J. E. Knox, J. B. Cross, 
 V. Bakken, C. Adamo, J. Jaramillo, R. Gomperts, R. E. Stratmann, 
 O. Yazyev, A. J. Austin, R. Cammi, C. Pomelli, J. W. Ochterski, 
 R. L. Martin, K. Morokuma, V. G. Zakrzewski, G. A. Voth, 
 P. Salvador, J. J. Dannenberg, S. Dapprich, A. D. Daniels, 
 O. Farkas, J. B. Foresman, J. V. Ortiz, J. Cioslowski, 
 and D. J. Fox, Gaussian, Inc., Wallingford CT, 2009.
 
 ******************************************
 Gaussian 09:  EM64L-G09RevA.02 11-Jun-2009
                26-May-2021 
 ******************************************
 %chk=c2h6_017.chk
 %mem=100MB
 --------------------------------
 #p b3lyp/6-31+g(d,p) force nosym
 --------------------------------
 1/10=7,30=1,38=1/1,3;
 2/12=2,15=1,17=6,18=5,40=1/2;
 3/5=1,6=6,7=111,11=2,16=1,25=1,30=1,71=1,74=-5/1,2,3;
 4//1;
 5/5=2,38=5/2;
 6/7=2,8=2,9=2,10=2,28=1/1;
 7/29=1,30=1/1,2,3,16;
 1/10=7,30=1/3;
 99//99;
 Leave Link    1 at Wed May 26 19:10:37 2021, MaxMem=   13107200 cpu:       0.0
 (Enter /programs/64bit/g09/g09-gfortran/bin/l101.exe)
 -------------
 c2h6 molecule
 -------------
 Symbolic Z-matrix:
 Charge =  0 Multiplicity = 1
 C1
 C2                   1    d1
 H3                   1    d2       2    a1
 H4                   1    d3       2    a2       3    t1       0
 H5                   1    d4       2    a3       3    t2       0
 H6                   2    d5       1    a4       3    t3       0
 H7                   2    d6       1    a5       6    t4       0
 H8                   2    d7       1    a6       6    t5       0
       Variables:
       Constants:
  d1                    1.47544                  
  a1                  178.45048                  
  t1                  119.59086                  
  d2                    1.10747                  
  a2                  109.58451                  
  t2                 -178.58855                  
  d3                    1.20021                  
  d4                    1.16314                  
  a3                  108.54722                  
  d5                    1.10942                  
  a4                  108.63509                  
  t3                  179.99706                  
  d6                    1.11671                  
  a5                  108.6366                   
  t4                  120.06785                  
  d7                    1.19158                  
  a6                  178.58792                  
  t5                 -120.                       
 
 NAtoms=      8 NQM=      8 NQMF=      0 NMic=      0 NMicF=      0 NTot=      8.
                    Isotopes and Nuclear Properties:
 (Nuclear quadrupole moments (NQMom) in fm**2, nuclear magnetic moments (NMagM)
  in nuclear magnetons)

  Atom         1           2           3           4           5           6           7           8
 IAtWgt=          12          12           1           1           1           1           1           1
 AtmWgt=  12.0000000  12.0000000   1.0078250   1.0078250   1.0078250   1.0078250   1.0078250   1.0078250
 NucSpn=           0           0           1           1           1           1           1           1
 AtZEff=   0.0000000   0.0000000   0.0000000   0.0000000   0.0000000   0.0000000   0.0000000   0.0000000
 NQMom=    0.0000000   0.0000000   0.0000000   0.0000000   0.0000000   0.0000000   0.0000000   0.0000000
 NMagM=    0.0000000   0.0000000   2.7928460   2.7928460   2.7928460   2.7928460   2.7928460   2.7928460
 Leave Link  101 at Wed May 26 19:10:37 2021, MaxMem=   13107200 cpu:       0.0
 (Enter /programs/64bit/g09/g09-gfortran/bin/l103.exe)

 GradGradGradGradGradGradGradGradGradGradGradGradGradGradGradGradGradGrad
 Berny optimization.
 Initialization pass.
                       ----------------------------
                       !    Initial Parameters    !
                       ! (Angstroms and Degrees)  !
 ----------------------                            ----------------------
 !      Name          Value   Derivative information (Atomic Units)     !
 ------------------------------------------------------------------------
 !       d1          1.4754   Frozen                                    !
 !       a1        178.4505   Frozen                                    !
 !       t1        119.5909   Frozen                                    !
 !       d2          1.1075   Frozen                                    !
 !       a2        109.5845   Frozen                                    !
 !       t2       -178.5885   Frozen                                    !
 !       d3          1.2002   Frozen                                    !
 !       d4          1.1631   Frozen                                    !
 !       a3        108.5472   Frozen                                    !
 !       d5          1.1094   Frozen                                    !
 !       a4        108.6351   Frozen                                    !
 !       t3        179.9971   Frozen                                    !
 !       d6          1.1167   Frozen                                    !
 !       a5        108.6366   Frozen                                    !
 !       t4        120.0678   Frozen                                    !
 !       d7          1.1916   Frozen                                    !
 !       a6        178.5879   Frozen                                    !
 !       t5       -120.0      Frozen                                    !
 ------------------------------------------------------------------------
 Trust Radius=3.00D-01 FncErr=1.00D-07 GrdErr=1.00D-07
 Number of steps in this run=   2 maximum allowed number of steps=   2.
 GradGradGradGradGradGradGradGradGradGradGradGradGradGradGradGradGradGrad

 Leave Link  103 at Wed May 26 19:10:37 2021, MaxMem=   13107200 cpu:       0.0
 (Enter /programs/64bit/g09/g09-gfortran/bin/l202.exe)
                          Input orientation:                          
 ---------------------------------------------------------------------
 Center     Atomic      Atomic             Coordinates (Angstroms)
 Number     Number       Type             X           Y           Z
 ---------------------------------------------------------------------
      1          6           0        0.000000    0.000000    0.000000
      2          6           0        0.000000    0.000000    1.475441
      3          1           0        0.029947    0.000000   -1.107067
      4          1           0       -0.558379   -0.983289   -0.402305
      5          1           0       -1.102398    0.027163   -0.369980
      6          1           0       -1.051254    0.000054    1.829944
      7          1           0        0.530117   -0.915792    1.832303
      8          1           0        0.014683    0.025429    2.666655
 ---------------------------------------------------------------------
                    Distance matrix (angstroms):
                    1          2          3          4          5
     1  C    0.000000
     2  C    1.475441   0.000000
     3  H    1.107472   2.582682   0.000000
     4  H    1.200206   2.191934   1.345241   0.000000
     5  H    1.163145   2.149791   1.351385   1.148049   0.000000
     6  H    2.110410   1.109418   3.129701   2.488539   2.200686
     7  H    2.115900   1.116714   3.119093   2.486535   2.899021
     8  H    2.666817   1.191576   3.773839   3.280919   3.235588
                    6          7          8
     6  H    0.000000
     7  H    1.827434   0.000000
     8  H    1.355342   1.359306   0.000000
 Symmetry turned off by external request.
 Stoichiometry    C2H6
 Framework group  C1[X(C2H6)]
 Deg. of freedom    18
 Full point group                 C1      NOp   1
 Rotational constants (GHZ):    114.4544133     18.7425226     18.0542343
 Leave Link  202 at Wed May 26 19:10:37 2021, MaxMem=   13107200 cpu:       0.0
 (Enter /programs/64bit/g09/g09-gfortran/bin/l301.exe)
 Standard basis: 6-31+G(d,p) (6D, 7F)
 Ernie: Thresh=  0.10000D-02 Tol=  0.10000D-05 Strict=F.
 Integral buffers will be    131072 words long.
 Raffenetti 2 integral format.
 Two-electron integral symmetry is turned off.
    68 basis functions,   106 primitive gaussians,    68 cartesian basis functions
     9 alpha electrons        9 beta electrons
       nuclear repulsion energy        41.8413791698 Hartrees.
 IExCor=  402 DFT=T Ex+Corr=B3LYP ExCW=0 ScaHFX=  0.200000
 ScaDFX=  0.800000  0.720000  1.000000  0.810000 ScalE2=  1.000000  1.000000
 IRadAn=      0 IRanWt=     -1 IRanGd=            0 ICorTp=0
 NAtoms=    8 NActive=    8 NUniq=    8 SFac= 7.50D-01 NAtFMM=   80 NAOKFM=F Big=F
 Leave Link  301 at Wed May 26 19:10:37 2021, MaxMem=   13107200 cpu:       0.0
 (Enter /programs/64bit/g09/g09-gfortran/bin/l302.exe)
 NPDir=0 NMtPBC=     1 NCelOv=     1 NCel=       1 NClECP=     1 NCelD=      1
         NCelK=      1 NCelE2=     1 NClLst=     1 CellRange=     0.0.
 One-electron integrals computed using PRISM.
 NBasis=    68 RedAO= T  NBF=    68
 NBsUse=    68 1.00D-06 NBFU=    68
 Precomputing XC quadrature grid using
 IXCGrd= 2 IRadAn=           0 IRanWt=          -1 IRanGd=           0 AccXCQ= 1.00D-10.
 NRdTot=     510 NPtTot=       65100 NUsed=       68787 NTot=       68819
 NSgBfM=    68    68    68    68    68 NAtAll=     8     8.
 Leave Link  302 at Wed May 26 19:10:37 2021, MaxMem=   13107200 cpu:       0.1
 (Enter /programs/64bit/g09/g09-gfortran/bin/l303.exe)
 DipDrv:  MaxL=1.
 Leave Link  303 at Wed May 26 19:10:37 2021, MaxMem=   13107200 cpu:       0.0
 (Enter /programs/64bit/g09/g09-gfortran/bin/l401.exe)
 Harris functional with IExCor=  402 diagonalized for initial guess.
 ExpMin= 4.38D-02 ExpMax= 3.05D+03 ExpMxC= 4.57D+02 IAcc=2 IRadAn=         0 AccDes= 0.00D+00
 HarFok:  IExCor=  402 AccDes= 0.00D+00 IRadAn=         0 IDoV= 1
 ScaDFX=  1.000000  1.000000  1.000000  1.000000
 FoFCou: FMM=F IPFlag=           0 FMFlag=      100000 FMFlg1=           0
         NFxFlg=           0 DoJE=T BraDBF=F KetDBF=T FulRan=T
         Omega=  0.000000  0.000000  1.000000  0.000000  0.000000 ICntrl=     500 IOpCl=  0
         NMat0=    1 NMatS0=    1 NMatT0=    0 NMatD0=    1 NMtDS0=    0 NMtDT0=    0
         I1Cent=           4 NGrid=           0.
 Symmetry not used in FoFCou.
 Harris En= -79.6012578500466    
 Leave Link  401 at Wed May 26 19:10:38 2021, MaxMem=   13107200 cpu:       0.8
 (Enter /programs/64bit/g09/g09-gfortran/bin/l502.exe)
 Closed shell SCF:
 Requested convergence on RMS density matrix=1.00D-08 within 128 cycles.
 Requested convergence on MAX density matrix=1.00D-06.
 Requested convergence on             energy=1.00D-06.
 No special actions if energy rises.
 Using DIIS extrapolation, IDIIS=  1040.
 Two-electron integral symmetry not used.
        68702 words used for storage of precomputed grid.
 Keep R1 ints in memory in canonical form, NReq=3743087.
 IEnd=      101552 IEndB=      101552 NGot=    13107200 MDV=    10273922
 LenX=    10273922 LenY=    10268857
 Symmetry not used in FoFDir.
 MinBra= 0 MaxBra= 2 Meth= 1.
 IRaf=       0 NMat=   1 IRICut=       1 DoRegI=T DoRafI=F ISym2E= 0 JSym2E=0.

 Cycle   1  Pass 1  IDiag  1:
 E= -79.4175441357235    
 DIIS: error= 3.60D-02 at cycle   1 NSaved=   1.
 NSaved= 1 IEnMin= 1 EnMin= -79.4175441357235     IErMin= 1 ErrMin= 3.60D-02
 ErrMax= 3.60D-02 EMaxC= 1.00D-01 BMatC= 1.22D-01 BMatP= 1.22D-01
 IDIUse=3 WtCom= 6.40D-01 WtEn= 3.60D-01
 Coeff-Com:  0.100D+01
 Coeff-En:   0.100D+01
 Coeff:      0.100D+01
 Gap=     0.180 Goal=   None    Shift=    0.000
 GapD=    0.180 DampG=1.000 DampE=0.500 DampFc=0.5000 IDamp=-1.
 Damping current iteration by 5.00D-01
 RMSDP=4.71D-02 MaxDP=1.08D+00              OVMax= 3.04D-01

 Cycle   2  Pass 1  IDiag  1:
 E= -79.4517357820830     Delta-E=       -0.034191646359 Rises=F Damp=T
 DIIS: error= 1.38D-02 at cycle   2 NSaved=   2.
 NSaved= 2 IEnMin= 2 EnMin= -79.4517357820830     IErMin= 2 ErrMin= 1.38D-02
 ErrMax= 1.38D-02 EMaxC= 1.00D-01 BMatC= 1.47D-02 BMatP= 1.22D-01
 IDIUse=3 WtCom= 8.62D-01 WtEn= 1.38D-01
 Coeff-Com:  0.228D+00 0.772D+00
 Coeff-En:   0.376D+00 0.624D+00
 Coeff:      0.248D+00 0.752D+00
 Gap=     0.207 Goal=   None    Shift=    0.000
 RMSDP=1.86D-02 MaxDP=4.91D-01 DE=-3.42D-02 OVMax= 1.90D-01

 Cycle   3  Pass 1  IDiag  1:
 E= -79.5541091187602     Delta-E=       -0.102373336677 Rises=F Damp=F
 DIIS: error= 3.11D-03 at cycle   3 NSaved=   3.
 NSaved= 3 IEnMin= 3 EnMin= -79.5541091187602     IErMin= 3 ErrMin= 3.11D-03
 ErrMax= 3.11D-03 EMaxC= 1.00D-01 BMatC= 7.77D-04 BMatP= 1.47D-02
 IDIUse=3 WtCom= 9.69D-01 WtEn= 3.11D-02
 Coeff-Com:  0.510D-01 0.204D+00 0.745D+00
 Coeff-En:   0.000D+00 0.000D+00 0.100D+01
 Coeff:      0.494D-01 0.197D+00 0.753D+00
 Gap=     0.206 Goal=   None    Shift=    0.000
 RMSDP=1.33D-03 MaxDP=2.26D-02 DE=-1.02D-01 OVMax= 1.34D-02

 Cycle   4  Pass 1  IDiag  1:
 E= -79.5548938923895     Delta-E=       -0.000784773629 Rises=F Damp=F
 DIIS: error= 9.55D-04 at cycle   4 NSaved=   4.
 NSaved= 4 IEnMin= 4 EnMin= -79.5548938923895     IErMin= 4 ErrMin= 9.55D-04
 ErrMax= 9.55D-04 EMaxC= 1.00D-01 BMatC= 8.80D-05 BMatP= 7.77D-04
 IDIUse=3 WtCom= 9.90D-01 WtEn= 9.55D-03
 Coeff-Com:  0.602D-02 0.169D-01 0.251D+00 0.726D+00
 Coeff-En:   0.000D+00 0.000D+00 0.000D+00 0.100D+01
 Coeff:      0.596D-02 0.167D-01 0.249D+00 0.728D+00
 Gap=     0.206 Goal=   None    Shift=    0.000
 RMSDP=2.89D-04 MaxDP=3.98D-03 DE=-7.85D-04 OVMax= 4.14D-03

 Cycle   5  Pass 1  IDiag  1:
 E= -79.5549754709187     Delta-E=       -0.000081578529 Rises=F Damp=F
 DIIS: error= 6.04D-04 at cycle   5 NSaved=   5.
 NSaved= 5 IEnMin= 5 EnMin= -79.5549754709187     IErMin= 5 ErrMin= 6.04D-04
 ErrMax= 6.04D-04 EMaxC= 1.00D-01 BMatC= 1.72D-05 BMatP= 8.80D-05
 IDIUse=3 WtCom= 9.94D-01 WtEn= 6.04D-03
 Coeff-Com:  0.735D-03-0.417D-02 0.867D-01 0.386D+00 0.531D+00
 Coeff-En:   0.000D+00 0.000D+00 0.000D+00 0.430D-01 0.957D+00
 Coeff:      0.731D-03-0.414D-02 0.862D-01 0.384D+00 0.533D+00
 Gap=     0.206 Goal=   None    Shift=    0.000
 RMSDP=1.39D-04 MaxDP=2.28D-03 DE=-8.16D-05 OVMax= 1.48D-03

 Cycle   6  Pass 1  IDiag  1:
 E= -79.5549927206847     Delta-E=       -0.000017249766 Rises=F Damp=F
 DIIS: error= 6.83D-05 at cycle   6 NSaved=   6.
 NSaved= 6 IEnMin= 6 EnMin= -79.5549927206847     IErMin= 6 ErrMin= 6.83D-05
 ErrMax= 6.83D-05 EMaxC= 1.00D-01 BMatC= 3.31D-07 BMatP= 1.72D-05
 IDIUse=1 WtCom= 1.00D+00 WtEn= 0.00D+00
 Coeff-Com:  0.479D-03-0.207D-02 0.193D-01 0.983D-01 0.185D+00 0.699D+00
 Coeff:      0.479D-03-0.207D-02 0.193D-01 0.983D-01 0.185D+00 0.699D+00
 Gap=     0.206 Goal=   None    Shift=    0.000
 RMSDP=1.60D-05 MaxDP=2.18D-04 DE=-1.72D-05 OVMax= 2.10D-04

 Cycle   7  Pass 1  IDiag  1:
 E= -79.5549930590579     Delta-E=       -0.000000338373 Rises=F Damp=F
 DIIS: error= 9.39D-06 at cycle   7 NSaved=   7.
 NSaved= 7 IEnMin= 7 EnMin= -79.5549930590579     IErMin= 7 ErrMin= 9.39D-06
 ErrMax= 9.39D-06 EMaxC= 1.00D-01 BMatC= 1.07D-08 BMatP= 3.31D-07
 IDIUse=1 WtCom= 1.00D+00 WtEn= 0.00D+00
 Coeff-Com:  0.224D-03-0.396D-03 0.123D-02 0.701D-02 0.191D-01 0.161D+00
 Coeff-Com:  0.812D+00
 Coeff:      0.224D-03-0.396D-03 0.123D-02 0.701D-02 0.191D-01 0.161D+00
 Coeff:      0.812D+00
 Gap=     0.206 Goal=   None    Shift=    0.000
 RMSDP=4.77D-06 MaxDP=8.18D-05 DE=-3.38D-07 OVMax= 4.89D-05

 Cycle   8  Pass 1  IDiag  1:
 E= -79.5549930720003     Delta-E=       -0.000000012942 Rises=F Damp=F
 DIIS: error= 1.57D-06 at cycle   8 NSaved=   8.
 NSaved= 8 IEnMin= 8 EnMin= -79.5549930720003     IErMin= 8 ErrMin= 1.57D-06
 ErrMax= 1.57D-06 EMaxC= 1.00D-01 BMatC= 2.57D-10 BMatP= 1.07D-08
 IDIUse=1 WtCom= 1.00D+00 WtEn= 0.00D+00
 Coeff-Com:  0.532D-04-0.673D-04-0.257D-03-0.102D-02-0.129D-02 0.220D-01
 Coeff-Com:  0.213D+00 0.767D+00
 Coeff:      0.532D-04-0.673D-04-0.257D-03-0.102D-02-0.129D-02 0.220D-01
 Coeff:      0.213D+00 0.767D+00
 Gap=     0.206 Goal=   None    Shift=    0.000
 RMSDP=1.07D-06 MaxDP=1.57D-05 DE=-1.29D-08 OVMax= 7.26D-06

 Cycle   9  Pass 1  IDiag  1:
 E= -79.5549930723083     Delta-E=       -0.000000000308 Rises=F Damp=F
 DIIS: error= 2.33D-07 at cycle   9 NSaved=   9.
 NSaved= 9 IEnMin= 9 EnMin= -79.5549930723083     IErMin= 9 ErrMin= 2.33D-07
 ErrMax= 2.33D-07 EMaxC= 1.00D-01 BMatC= 5.59D-12 BMatP= 2.57D-10
 IDIUse=1 WtCom= 1.00D+00 WtEn= 0.00D+00
 Coeff-Com: -0.165D-05 0.298D-05-0.701D-04-0.356D-03-0.115D-02-0.342D-02
 Coeff-Com:  0.602D-03 0.130D+00 0.874D+00
 Coeff:     -0.165D-05 0.298D-05-0.701D-04-0.356D-03-0.115D-02-0.342D-02
 Coeff:      0.602D-03 0.130D+00 0.874D+00
 Gap=     0.206 Goal=   None    Shift=    0.000
 RMSDP=2.34D-07 MaxDP=3.75D-06 DE=-3.08D-10 OVMax= 1.97D-06

 Cycle  10  Pass 1  IDiag  1:
 E= -79.5549930723165     Delta-E=       -0.000000000008 Rises=F Damp=F
 DIIS: error= 5.04D-08 at cycle  10 NSaved=  10.
 NSaved=10 IEnMin=10 EnMin= -79.5549930723165     IErMin=10 ErrMin= 5.04D-08
 ErrMax= 5.04D-08 EMaxC= 1.00D-01 BMatC= 1.76D-13 BMatP= 5.59D-12
 IDIUse=1 WtCom= 1.00D+00 WtEn= 0.00D+00
 Coeff-Com: -0.109D-05 0.106D-05-0.607D-05-0.435D-04-0.180D-03-0.768D-03
 Coeff-Com: -0.236D-02 0.774D-03 0.153D+00 0.850D+00
 Coeff:     -0.109D-05 0.106D-05-0.607D-05-0.435D-04-0.180D-03-0.768D-03
 Coeff:     -0.236D-02 0.774D-03 0.153D+00 0.850D+00
 Gap=     0.206 Goal=   None    Shift=    0.000
 RMSDP=2.21D-08 MaxDP=2.73D-07 DE=-8.19D-12 OVMax= 2.82D-07

 Cycle  11  Pass 1  IDiag  1:
 E= -79.5549930723167     Delta-E=       -0.000000000000 Rises=F Damp=F
 DIIS: error= 9.88D-09 at cycle  11 NSaved=  11.
 NSaved=11 IEnMin=11 EnMin= -79.5549930723167     IErMin=11 ErrMin= 9.88D-09
 ErrMax= 9.88D-09 EMaxC= 1.00D-01 BMatC= 1.33D-14 BMatP= 1.76D-13
 IDIUse=1 WtCom= 1.00D+00 WtEn= 0.00D+00
 Coeff-Com: -0.131D-06 0.152D-06 0.153D-05 0.125D-05-0.299D-05-0.419D-04
 Coeff-Com: -0.484D-03-0.772D-02-0.271D-02 0.192D+00 0.819D+00
 Coeff:     -0.131D-06 0.152D-06 0.153D-05 0.125D-05-0.299D-05-0.419D-04
 Coeff:     -0.484D-03-0.772D-02-0.271D-02 0.192D+00 0.819D+00
 Gap=     0.206 Goal=   None    Shift=    0.000
 RMSDP=7.70D-09 MaxDP=1.13D-07 DE=-1.42D-13 OVMax= 5.56D-08

 SCF Done:  E(RB3LYP) =  -79.5549930723     A.U. after   11 cycles
             Convg  =    0.7699D-08             -V/T =  2.0112
 KE= 7.867377010875D+01 PE=-2.664596104658D+02 EE= 6.638946811494D+01
 Leave Link  502 at Wed May 26 19:10:45 2021, MaxMem=   13107200 cpu:       6.9
 (Enter /programs/64bit/g09/g09-gfortran/bin/l601.exe)
 Copying SCF densities to generalized density rwf, IOpCl= 0 IROHF=0.

 **********************************************************************

            Population analysis using the SCF density.

 **********************************************************************

 Alpha  occ. eigenvalues --  -10.21899 -10.21456  -0.78992  -0.68788  -0.50130
 Alpha  occ. eigenvalues --   -0.43883  -0.36643  -0.28587  -0.23189
 Alpha virt. eigenvalues --   -0.02617  -0.00612   0.03529   0.05161   0.06072
 Alpha virt. eigenvalues --    0.07161   0.08861   0.09518   0.12420   0.15428
 Alpha virt. eigenvalues --    0.18078   0.20941   0.22905   0.26185   0.40486
 Alpha virt. eigenvalues --    0.65635   0.66976   0.69233   0.71010   0.74723
 Alpha virt. eigenvalues --    0.82157   0.83727   0.86621   0.90354   0.92874
 Alpha virt. eigenvalues --    0.96327   1.06666   1.15434   1.22735   1.27036
 Alpha virt. eigenvalues --    1.31565   1.56850   1.66961   1.75955   1.80496
 Alpha virt. eigenvalues --    1.87602   1.95602   1.98204   2.10884   2.18068
 Alpha virt. eigenvalues --    2.21922   2.27440   2.41999   2.44507   2.60011
 Alpha virt. eigenvalues --    2.61301   2.63561   2.74380   2.76053   2.84871
 Alpha virt. eigenvalues --    2.98673   3.04465   3.06051   3.26546   3.31165
 Alpha virt. eigenvalues --    3.38356   3.74490   4.27198   5.05906
          Condensed to atoms (all electrons):
              1          2          3          4          5          6
     1  C    5.479631   0.050024   0.389030   0.352415   0.237999  -0.114674
     2  C    0.050024   5.362391   0.018689  -0.129646   0.000576   0.458065
     3  H    0.389030   0.018689   0.581225  -0.093854  -0.071677   0.004610
     4  H    0.352415  -0.129646  -0.093854   0.903649  -0.060665  -0.008430
     5  H    0.237999   0.000576  -0.071677  -0.060665   0.836223  -0.025959
     6  H   -0.114674   0.458065   0.004610  -0.008430  -0.025959   0.639903
     7  H   -0.166819   0.482769   0.002188  -0.025479   0.008370  -0.029006
     8  H    0.098253   0.219338  -0.000544   0.005806   0.000417  -0.066680
              7          8
     1  C   -0.166819   0.098253
     2  C    0.482769   0.219338
     3  H    0.002188  -0.000544
     4  H   -0.025479   0.005806
     5  H    0.008370   0.000417
     6  H   -0.029006  -0.066680
     7  H    0.661451  -0.072738
     8  H   -0.072738   0.610772
 Mulliken atomic charges:
              1
     1  C   -0.325859
     2  C   -0.462205
     3  H    0.170333
     4  H    0.056203
     5  H    0.074716
     6  H    0.142171
     7  H    0.139265
     8  H    0.205377
 Sum of Mulliken atomic charges =  -0.00000
 Mulliken charges with hydrogens summed into heavy atoms:
              1
     1  C   -0.024608
     2  C    0.024608
 Sum of Mulliken charges with hydrogens summed into heavy atoms =  -0.00000
 Electronic spatial extent (au):  <R**2>=            152.7496
 Charge=             -0.0000 electrons
 Dipole moment (field-independent basis, Debye):
    X=             -1.1060    Y=             -0.9605    Z=              0.4313  Tot=              1.5270
 Quadrupole moment (field-independent basis, Debye-Ang):
   XX=            -16.3264   YY=            -18.4389   ZZ=            -11.5857
   XY=             -0.1356   XZ=             -0.2593   YZ=             -1.1062
 Traceless Quadrupole moment (field-independent basis, Debye-Ang):
   XX=             -0.8761   YY=             -2.9885   ZZ=              3.8646
   XY=             -0.1356   XZ=             -0.2593   YZ=             -1.1062
 Octapole moment (field-independent basis, Debye-Ang**2):
  XXX=              4.2528  YYY=              4.4044  ZZZ=            -25.0855  XYY=              1.7988
  XXY=              0.8275  XXZ=            -11.6543  XZZ=             -1.7966  YZZ=             -3.4348
  YYZ=            -13.3119  XYZ=             -1.8309
 Hexadecapole moment (field-independent basis, Debye-Ang**3):
 XXXX=            -34.7481 YYYY=            -35.6333 ZZZZ=           -130.7470 XXXY=             -0.3591
 XXXZ=             -0.3780 YYYX=             -0.7430 YYYZ=              1.2669 ZZZX=             -6.2860
 ZZZY=             -9.1676 XXYY=            -11.7025 XXZZ=            -33.6849 YYZZ=            -37.6021
 XXYZ=              0.6452 YYXZ=              0.3744 ZZXY=             -2.8363
 N-N= 4.184137916976D+01 E-N=-2.664596107572D+02  KE= 7.867377010875D+01
 No NMR shielding tensors so no spin-rotation constants.
 Leave Link  601 at Wed May 26 19:10:45 2021, MaxMem=   13107200 cpu:       0.0
 (Enter /programs/64bit/g09/g09-gfortran/bin/l701.exe)
 Compute integral first derivatives.
 ... and contract with generalized density number  0.
 Leave Link  701 at Wed May 26 19:10:45 2021, MaxMem=   13107200 cpu:       0.1
 (Enter /programs/64bit/g09/g09-gfortran/bin/l702.exe)
 L702 exits ... SP integral derivatives will be done elsewhere.
 Leave Link  702 at Wed May 26 19:10:45 2021, MaxMem=   13107200 cpu:       0.0
 (Enter /programs/64bit/g09/g09-gfortran/bin/l703.exe)
 Compute integral first derivatives, UseDBF=F ICtDFT=           0.
 Integral derivatives from FoFDir, PRISM(SPDF).
 Calling FoFJK, ICntrl=      2127 FMM=F ISym2X=0 I1Cent= 0 IOpClX= 0 NMat=1 NMatS=1 NMatT=0.
 FoFCou: FMM=F IPFlag=           0 FMFlag=      100000 FMFlg1=         800
         NFxFlg=           0 DoJE=F BraDBF=F KetDBF=F FulRan=T
         Omega=  0.000000  0.000000  1.000000  0.000000  0.000000 ICntrl=    2127 IOpCl=  0
         NMat0=    1 NMatS0=    1 NMatT0=    0 NMatD0=    1 NMtDS0=    0 NMtDT0=    0
         I1Cent=           0 NGrid=           0.
 Symmetry not used in FoFCou.
 Leave Link  703 at Wed May 26 19:10:47 2021, MaxMem=   13107200 cpu:       1.4
 (Enter /programs/64bit/g09/g09-gfortran/bin/l716.exe)
 Dipole        =-4.35114347D-01-3.77884216D-01 1.69667554D-01
 -------------------------------------------------------------------
 Center     Atomic                   Forces (Hartrees/Bohr)
 Number     Number              X              Y              Z
 -------------------------------------------------------------------
      1        6          -0.115021312   -0.048698743   -0.094714002
      2        6          -0.010512431   -0.052824446    0.088901666
      3        1           0.080869585    0.051056392    0.005435902
      4        1           0.037988021   -0.029456244    0.044046022
      5        1          -0.010756145    0.049831790    0.034166783
      6        1          -0.010326521   -0.024906738   -0.026272544
      7        1          -0.016930351   -0.021438248   -0.022970599
      8        1           0.044689155    0.076436238   -0.028593228
 -------------------------------------------------------------------
 Cartesian Forces:  Max     0.115021312 RMS     0.051606780
 -----------------------------------------------------------------------------------------------
                       Internal Coordinate Forces (Hartree/Bohr or radian)
  Cent   Atom   N1       Length/X         N2         Alpha/Y        N3         Beta/Z          J
 -----------------------------------------------------------------------------------------------
      1  C 
      2  C        1   0.011065(     1)
      3  H        1  -0.003247(     2)      2  -0.169491(     8)
      4  H        1  -0.008305(     3)      2  -0.099332(     9)      3  -0.101669(    14)     0
      5  H        1   0.000490(     4)      2  -0.079575(    10)      3   0.103259(    15)     0
      6  H        2   0.001389(     5)      1  -0.059110(    11)      3  -0.001322(    16)     0
      7  H        2   0.002203(     6)      1  -0.052725(    12)      6  -0.050776(    17)     0
      8  H        2  -0.026403(     7)      1  -0.200897(    13)      6  -0.000027(    18)     0
 -----------------------------------------------------------------------------------------------
 Internal  Forces:  Max     0.200896979 RMS     0.080292781
 Force constants in Cartesian coordinates: 
                1             2             3             4             5 
      1  0.566235D+01
      2 -0.696309D+01  0.381286D+02
      3  0.106926D+00  0.610393D-01  0.857648D+00
      4 -0.116310D+02  0.157527D+02  0.357399D-01  0.265644D+02
      5  0.839076D+01 -0.236963D+02  0.203683D-01 -0.189935D+02  0.195059D+02
      6 -0.125764D-01 -0.215154D-01 -0.350968D+00 -0.629118D-01 -0.105788D+00
      7 -0.116125D+00  0.699766D-03 -0.427848D-01  0.331216D-01 -0.318105D-02
      8  0.241003D+01 -0.193296D+02 -0.270289D-01 -0.533643D+01  0.107555D+02
      9  0.575009D-02  0.189292D-04 -0.329849D+00  0.895966D-03 -0.860500D-04
     10 -0.449421D-01 -0.124603D+00 -0.377132D-01 -0.113893D+00  0.706259D-01
     11 -0.995308D-01 -0.151233D+00 -0.443759D-01  0.694983D-01 -0.315813D-01
     12 -0.364885D-01 -0.599104D-01 -0.856979D-01 -0.117862D-01 -0.208360D-01
     13 -0.252159D+00  0.685045D-02 -0.621683D-01  0.119098D-01 -0.201699D-02
     14 -0.849161D-01 -0.132439D-01 -0.100029D-01  0.144885D+00 -0.743177D-01
     15 -0.761880D-01 -0.114785D-02 -0.911332D-01 -0.248496D-01  0.553732D-03
     16  0.876041D-02 -0.198261D-04  0.000000D+00 -0.294829D+00  0.657532D-02
     17 -0.280390D-02 -0.155096D+00  0.000000D+00 -0.205137D-01 -0.422129D-02
     18  0.259788D-01 -0.352114D-04  0.000000D+00  0.942710D-01  0.194496D-01
     19  0.118925D-01  0.142229D+00  0.000000D+00 -0.122785D+00  0.129499D-01
     20  0.183442D-02  0.910283D-01  0.000000D+00  0.102068D+00 -0.276626D+00
     21 -0.129587D-01  0.223194D-01  0.000000D+00 -0.295378D-01  0.894895D-01
     22  0.636119D+01 -0.881480D+01  0.000000D+00 -0.144469D+02  0.105177D+02
     23 -0.365228D+01  0.512584D+01  0.000000D+00  0.828122D+01 -0.617842D+01
     24 -0.443775D-03 -0.768760D-03  0.000000D+00 -0.182138D-02 -0.315144D-02
                6             7             8             9            10 
      6  0.832027D+00
      7  0.000000D+00  0.901473D-01
      8  0.000000D+00  0.107750D-01  0.102583D+02
      9  0.000000D+00 -0.645281D-02  0.291472D-03  0.328517D+00
     10  0.000000D+00  0.394977D-02 -0.960553D-02  0.106844D-03  0.886224D-01
     11  0.000000D+00 -0.884743D-02 -0.578535D-02 -0.239330D-03  0.763845D-01
     12  0.000000D+00  0.161423D-01  0.274722D-01  0.436661D-03  0.324352D-01
     13  0.000000D+00 -0.110936D-01  0.488142D-03 -0.300091D-03 -0.109298D-02
     14  0.000000D+00  0.553733D-03  0.980326D-02  0.149789D-04  0.260769D-01
     15  0.000000D+00  0.330953D-01 -0.734757D-03  0.895255D-03  0.517113D-02
     16  0.714988D-01  0.000000D+00  0.497481D-05  0.000000D+00  0.000000D+00
     17  0.286835D-01  0.000000D+00  0.970266D-01  0.000000D+00  0.223448D-02
     18 -0.114597D+00  0.000000D+00  0.000000D+00  0.000000D+00  0.000000D+00
     19 -0.101578D-01  0.000000D+00 -0.834246D-01  0.000000D+00 -0.192123D-02
     20  0.744432D-01  0.000000D+00 -0.482913D-01  0.000000D+00 -0.111213D-02
     21 -0.112866D+00  0.000000D+00  0.000000D+00  0.000000D+00  0.000000D+00
     22  0.141473D-01  0.000000D+00  0.300817D+01  0.000000D+00  0.692768D-01
     23  0.241764D-01  0.000000D+00 -0.173697D+01  0.000000D+00 -0.400017D-01
     24 -0.253596D+00  0.000000D+00  0.000000D+00  0.000000D+00  0.000000D+00
               11            12            13            14            15 
     11  0.183456D+00
     12  0.480770D-01  0.839775D-01
     13  0.744555D-03 -0.302795D-03  0.254392D+00
     14 -0.169347D-01  0.519725D-02 -0.719548D-02  0.488592D-01
     15 -0.346176D-02  0.128377D-02  0.627712D-01  0.479064D-02  0.889541D-01
     16  0.000000D+00  0.000000D+00  0.000000D+00  0.000000D+00  0.000000D+00
     17 -0.126889D-02  0.000000D+00 -0.649045D-04 -0.263416D-02  0.000000D+00
     18  0.000000D+00  0.000000D+00  0.000000D+00  0.000000D+00  0.000000D+00
     19  0.109101D-02  0.000000D+00  0.558056D-04  0.226488D-02  0.000000D+00
     20  0.631542D-03  0.000000D+00  0.323037D-04  0.131106D-02  0.000000D+00
     21  0.000000D+00  0.000000D+00  0.000000D+00  0.000000D+00  0.000000D+00
     22 -0.393401D-01  0.000000D+00 -0.201227D-02 -0.816684D-01  0.000000D+00
     23  0.227157D-01  0.000000D+00  0.116192D-02  0.471568D-01  0.000000D+00
     24  0.000000D+00  0.000000D+00  0.000000D+00  0.000000D+00  0.000000D+00
               16            17            18            19            20 
     16  0.301583D+00
     17 -0.472590D-02  0.467384D-01
     18 -0.742371D-01 -0.139718D-01  0.106475D+00
     19 -0.467484D-02  0.267066D-01 -0.138670D-01  0.112532D+00
     20 -0.169227D-02  0.980290D-02 -0.501981D-02 -0.110059D+00  0.228225D+00
     21  0.260169D-02 -0.145159D-01  0.771733D-02  0.242612D-01 -0.694431D-01
     22 -0.108402D-01 -0.832676D-03 -0.321457D-01  0.490082D-02  0.892894D-02
     23 -0.142097D-03  0.965231D-02 -0.422845D-03  0.824236D-02 -0.608122D-02
     24  0.136653D-03 -0.195787D-03  0.405265D-03 -0.236361D-03  0.197565D-04
               21            22            23            24 
     21  0.104747D+00
     22  0.156336D-01  0.802442D+01
     23 -0.278498D-01 -0.459820D+01  0.271611D+01
     24  0.401813D-03  0.236486D-02  0.409623D-02  0.252789D+00
 Force constants in internal coordinates: 
                1             2             3             4             5 
      1  0.350968D+00
      2  0.000000D+00  0.328691D+00
      3  0.000000D+00  0.000000D+00  0.246503D+00
      4  0.000000D+00  0.000000D+00  0.000000D+00  0.275636D+00
      5  0.000000D+00  0.000000D+00  0.000000D+00  0.000000D+00  0.326618D+00
      6  0.000000D+00  0.000000D+00  0.000000D+00  0.000000D+00  0.000000D+00
      7  0.000000D+00  0.000000D+00  0.000000D+00  0.000000D+00  0.000000D+00
      8  0.000000D+00  0.000000D+00  0.000000D+00  0.000000D+00  0.000000D+00
      9  0.000000D+00  0.000000D+00  0.000000D+00  0.000000D+00  0.000000D+00
     10  0.000000D+00  0.000000D+00  0.000000D+00  0.000000D+00  0.000000D+00
     11  0.000000D+00  0.000000D+00  0.000000D+00  0.000000D+00  0.000000D+00
     12  0.000000D+00  0.000000D+00  0.000000D+00  0.000000D+00  0.000000D+00
     13  0.000000D+00  0.000000D+00  0.000000D+00  0.000000D+00  0.000000D+00
     14  0.000000D+00  0.000000D+00  0.000000D+00  0.000000D+00  0.000000D+00
     15  0.000000D+00  0.000000D+00  0.000000D+00  0.000000D+00  0.000000D+00
     16  0.000000D+00  0.000000D+00  0.000000D+00  0.000000D+00  0.000000D+00
     17  0.000000D+00  0.000000D+00  0.000000D+00  0.000000D+00  0.000000D+00
     18  0.000000D+00  0.000000D+00  0.000000D+00  0.000000D+00  0.000000D+00
                6             7             8             9            10 
      6  0.318994D+00
      7  0.000000D+00  0.252905D+00
      8  0.000000D+00  0.000000D+00  0.394071D+00
      9  0.000000D+00  0.000000D+00  0.813561D-01  0.326163D+00
     10  0.000000D+00  0.000000D+00  0.160640D+00  0.716506D-02  0.328238D+00
     11  0.000000D+00  0.000000D+00  0.000000D+00  0.000000D+00  0.000000D+00
     12  0.000000D+00  0.000000D+00  0.000000D+00  0.000000D+00  0.000000D+00
     13  0.000000D+00  0.000000D+00  0.000000D+00  0.000000D+00  0.000000D+00
     14  0.000000D+00  0.000000D+00  0.349103D-01  0.229646D-01  0.307460D-01
     15  0.000000D+00  0.000000D+00 -0.122291D-02 -0.260269D-01 -0.306081D-01
     16  0.000000D+00  0.000000D+00  0.000000D+00  0.000000D+00  0.000000D+00
     17  0.000000D+00  0.000000D+00  0.000000D+00  0.000000D+00  0.000000D+00
     18  0.000000D+00  0.000000D+00  0.000000D+00  0.000000D+00  0.000000D+00
               11            12            13            14            15 
     11  0.357956D+00
     12  0.380260D-01  0.357953D+00
     13  0.819309D-01  0.817681D-01  0.308843D+00
     14  0.000000D+00  0.000000D+00  0.000000D+00  0.210717D+00
     15  0.000000D+00  0.000000D+00  0.000000D+00 -0.138023D+00  0.211173D+00
     16  0.596825D-03 -0.595480D-03 -0.277117D-04  0.327244D-01  0.327244D-01
     17 -0.642217D-01 -0.614228D-01 -0.355681D-01  0.109081D-01  0.109081D-01
     18  0.339175D-02 -0.339408D-02  0.165921D-05  0.109081D-01  0.109081D-01
               16            17            18 
     16  0.176694D+00
     17  0.725170D-01  0.184452D+00
     18  0.316612D-01 -0.610642D-03  0.328835D-01
 Leave Link  716 at Wed May 26 19:10:47 2021, MaxMem=   13107200 cpu:       0.0
 (Enter /programs/64bit/g09/g09-gfortran/bin/l103.exe)

 GradGradGradGradGradGradGradGradGradGradGradGradGradGradGradGradGradGrad
 Berny optimization.
 Search for a local minimum.
 Step number   1 out of a maximum of    2
 All quantities printed in internal units (Hartrees-Bohrs-Radians)
 Second derivative matrix not updated -- first step.
 The second derivative matrix:
                          d1        a1        t1        d2        a2
           d1           0.35097
           a1          -0.00000   0.39407
           t1          -0.00000   0.03491   0.21072
           d2          -0.00000   0.00000   0.00000   0.32869
           a2          -0.00000   0.08136   0.02296   0.00000   0.32616
           t2           0.00000  -0.00122  -0.13802  -0.00000  -0.02603
           d3          -0.00000  -0.00000  -0.00000   0.00000  -0.00000
           d4           0.00000  -0.00000   0.00000   0.00000   0.00000
           a3          -0.00000   0.16064   0.03075   0.00000   0.00717
           d5          -0.00000   0.00000   0.00000   0.00000   0.00000
           a4          -0.00000  -0.00000   0.00000  -0.00000  -0.00000
           t3          -0.00000   0.00000   0.03272   0.00000   0.00000
           d6          -0.00000  -0.00000  -0.00000   0.00000  -0.00000
           a5          -0.00000   0.00000  -0.00000   0.00000   0.00000
           t4           0.00000   0.00000   0.01091  -0.00000   0.00000
           d7           0.00000  -0.00000   0.00000   0.00000  -0.00000
           a6          -0.00000  -0.00000   0.00000   0.00000   0.00000
           t5           0.00000  -0.00000   0.01091  -0.00000   0.00000
                          t2        d3        d4        a3        d5
           t2           0.21117
           d3           0.00000   0.24650
           d4          -0.00000   0.00000   0.27564
           a3          -0.03061  -0.00000  -0.00000   0.32824
           d5           0.00000  -0.00000   0.00000   0.00000   0.32662
           a4           0.00000   0.00000  -0.00000  -0.00000  -0.00000
           t3           0.03272  -0.00000  -0.00000   0.00000  -0.00000
           d6           0.00000  -0.00000   0.00000   0.00000  -0.00000
           a5          -0.00000   0.00000  -0.00000   0.00000  -0.00000
           t4           0.01091  -0.00000   0.00000  -0.00000   0.00000
           d7          -0.00000   0.00000   0.00000  -0.00000   0.00000
           a6           0.00000  -0.00000  -0.00000   0.00000  -0.00000
           t5           0.01091   0.00000   0.00000  -0.00000  -0.00000
                          a4        t3        d6        a5        t4
           a4           0.35796
           t3           0.00060   0.17669
           d6           0.00000   0.00000   0.31899
           a5           0.03803  -0.00060   0.00000   0.35795
           t4          -0.06422   0.07252   0.00000  -0.06142   0.18445
           d7          -0.00000   0.00000   0.00000  -0.00000   0.00000
           a6           0.08193  -0.00003   0.00000   0.08177  -0.03557
           t5           0.00339   0.03166   0.00000  -0.00339  -0.00061
                          d7        a6        t5
           d7           0.25291
           a6          -0.00000   0.30884
           t5           0.00000   0.00000   0.03288
     Eigenvalues --- 1000.000001000.000001000.000001000.000001000.00000
     Eigenvalues --- 1000.000001000.000001000.000001000.000001000.00000
     Eigenvalues --- 1000.000001000.000001000.000001000.000001000.00000
     Eigenvalues --- 1000.000001000.000001000.00000
 Angle between quadratic step and forces=  90.00 degrees.
 Linear search not attempted -- first point.
 Variable       Old X    -DE/DX   Delta X   Delta X   Delta X     New X
                                 (Linear)    (Quad)   (Total)
    d1        2.78818   0.01107   0.00000   0.00000   0.00000   2.78818
    a1        3.11455  -0.16949   0.00000   0.00000   0.00000   3.11455
    t1        2.08725  -0.10167   0.00000   0.00000   0.00000   2.08725
    d2        2.09282  -0.00325   0.00000   0.00000   0.00000   2.09282
    a2        1.91261  -0.09933   0.00000   0.00000   0.00000   1.91261
    t2       -3.11696   0.10326   0.00000   0.00000   0.00000  -3.11696
    d3        2.26806  -0.00830   0.00000   0.00000   0.00000   2.26806
    d4        2.19802   0.00049   0.00000   0.00000   0.00000   2.19802
    a3        1.89451  -0.07958   0.00000   0.00000   0.00000   1.89451
    d5        2.09650   0.00139   0.00000   0.00000   0.00000   2.09650
    a4        1.89604  -0.05911   0.00000   0.00000   0.00000   1.89604
    t3        3.14154  -0.00132   0.00000   0.00000   0.00000   3.14154
    d6        2.11028   0.00220   0.00000   0.00000   0.00000   2.11028
    a5        1.89607  -0.05273   0.00000   0.00000   0.00000   1.89607
    t4        2.09558  -0.05078   0.00000   0.00000   0.00000   2.09558
    d7        2.25175  -0.02640   0.00000   0.00000   0.00000   2.25175
    a6        3.11695  -0.20090   0.00000   0.00000   0.00000   3.11695
    t5       -2.09440  -0.00003   0.00000   0.00000   0.00000  -2.09440
         Item               Value     Threshold  Converged?
 Maximum Force            0.000000     0.000450     YES
 RMS     Force            0.000000     0.000300     YES
 Maximum Displacement     0.000000     0.001800     YES
 RMS     Displacement     0.000000     0.001200     YES
 Predicted change in Energy=-0.000000D+00
 Optimization completed.
    -- Stationary point found.
                       ----------------------------
                       !   Optimized Parameters   !
                       ! (Angstroms and Degrees)  !
 ----------------------                            ----------------------
 !      Name          Value   Derivative information (Atomic Units)     !
 ------------------------------------------------------------------------
 !       d1          1.4754   -DE/DX =    0.0111                        !
 !       a1        178.4505   -DE/DX =   -0.1695                        !
 !       t1        119.5909   -DE/DX =   -0.1017                        !
 !       d2          1.1075   -DE/DX =   -0.0032                        !
 !       a2        109.5845   -DE/DX =   -0.0993                        !
 !       t2       -178.5885   -DE/DX =    0.1033                        !
 !       d3          1.2002   -DE/DX =   -0.0083                        !
 !       d4          1.1631   -DE/DX =    0.0005                        !
 !       a3        108.5472   -DE/DX =   -0.0796                        !
 !       d5          1.1094   -DE/DX =    0.0014                        !
 !       a4        108.6351   -DE/DX =   -0.0591                        !
 !       t3        179.9971   -DE/DX =   -0.0013                        !
 !       d6          1.1167   -DE/DX =    0.0022                        !
 !       a5        108.6366   -DE/DX =   -0.0527                        !
 !       t4        120.0678   -DE/DX =   -0.0508                        !
 !       d7          1.1916   -DE/DX =   -0.0264                        !
 !       a6        178.5879   -DE/DX =   -0.2009                        !
 !       t5       -120.0      -DE/DX =    0.0                           !
 ------------------------------------------------------------------------
 GradGradGradGradGradGradGradGradGradGradGradGradGradGradGradGradGradGrad

 Leave Link  103 at Wed May 26 19:10:47 2021, MaxMem=   13107200 cpu:       0.0
 (Enter /programs/64bit/g09/g09-gfortran/bin/l9999.exe)
 1\1\GINC-MOLMOD\Force\RB3LYP\6-31+G(d,p)\C2H6\OSPITE\26-May-2021\1\\#p
  b3lyp/6-31+g(d,p) force nosym\\c2h6 molecule\\0,1\C\C,1,d1\H,1,d2,2,a
 1\H,1,d3,2,a2,3,t1,0\H,1,d4,2,a3,3,t2,0\H,2,d5,1,a4,3,t3,0\H,2,d6,1,a5
 ,6,t4,0\H,2,d7,1,a6,6,t5,0\\d1=1.4754412\a1=178.45048048\t1=119.590857
 82\d2=1.10747203\a2=109.58451483\t2=-178.58854658\d3=1.20020576\d4=1.1
 6314462\a3=108.54722017\d5=1.10941753\a4=108.63508926\t3=179.99706229\
 d6=1.1167137\a5=108.63659575\t4=120.06784961\d7=1.19157606\a6=178.5879
 2046\t5=-119.99999826\\Version=EM64L-G09RevA.02\HF=-79.5549931\RMSD=7.
 699e-09\RMSF=5.161e-02\Dipole=-0.4351143,-0.3778842,0.1696676\Quadrupo
 le=-0.6513433,-2.2218937,2.873237,-0.1008244,-0.1927688,-0.8224044\PG=
 C01 [X(C2H6)]\\@


 ONE THORN OF EXPERIENCE IS WORTH A WHOLE WILDERNESS OF
 WARNING....  LOWELL - AMONG MY BOOKS
 Job cpu time:  0 days  0 hours  0 minutes  9.4 seconds.
 File lengths (MBytes):  RWF=      5 Int=      0 D2E=      0 Chk=      1 Scr=      1
 Normal termination of Gaussian 09 at Wed May 26 19:10:47 2021.
