 Entering Gaussian System, Link 0=g09
 Input=c2h6_042.com
 Output=c2h6_042.log
 Initial command:
 /programs/64bit/g09/g09-gfortran/bin/l1.exe /data/scratch/Gau-6914.inp -scrdir=/data/scratch/
 Entering Link 1 = /programs/64bit/g09/g09-gfortran/bin/l1.exe PID=      6915.
  
 Copyright (c) 1988,1990,1992,1993,1995,1998,2003,2009, Gaussian, Inc.
                  All Rights Reserved.
  
 This is part of the Gaussian(R) 09 program.  It is based on
 the Gaussian(R) 03 system (copyright 2003, Gaussian, Inc.),
 the Gaussian(R) 98 system (copyright 1998, Gaussian, Inc.),
 the Gaussian(R) 94 system (copyright 1995, Gaussian, Inc.),
 the Gaussian 92(TM) system (copyright 1992, Gaussian, Inc.),
 the Gaussian 90(TM) system (copyright 1990, Gaussian, Inc.),
 the Gaussian 88(TM) system (copyright 1988, Gaussian, Inc.),
 the Gaussian 86(TM) system (copyright 1986, Carnegie Mellon
 University), and the Gaussian 82(TM) system (copyright 1983,
 Carnegie Mellon University). Gaussian is a federally registered
 trademark of Gaussian, Inc.
  
 This software contains proprietary and confidential information,
 including trade secrets, belonging to Gaussian, Inc.
  
 This software is provided under written license and may be
 used, copied, transmitted, or stored only in accord with that
 written license.
  
 The following legend is applicable only to US Government
 contracts under FAR:
  
                    RESTRICTED RIGHTS LEGEND
  
 Use, reproduction and disclosure by the US Government is
 subject to restrictions as set forth in subparagraphs (a)
 and (c) of the Commercial Computer Software - Restricted
 Rights clause in FAR 52.227-19.
  
 Gaussian, Inc.
 340 Quinnipiac St., Bldg. 40, Wallingford CT 06492
  
  
 ---------------------------------------------------------------
 Warning -- This program may not be used in any manner that
 competes with the business of Gaussian, Inc. or will provide
 assistance to any competitor of Gaussian, Inc.  The licensee
 of this program is prohibited from giving any competitor of
 Gaussian, Inc. access to this program.  By using this program,
 the user acknowledges that Gaussian, Inc. is engaged in the
 business of creating and licensing software in the field of
 computational chemistry and represents and warrants to the
 licensee that it is not a competitor of Gaussian, Inc. and that
 it will not use this program in any manner prohibited above.
 ---------------------------------------------------------------
  

 Cite this work as:
 Gaussian 09, Revision A.02,
 M. J. Frisch, G. W. Trucks, H. B. Schlegel, G. E. Scuseria, 
 M. A. Robb, J. R. Cheeseman, G. Scalmani, V. Barone, B. Mennucci, 
 G. A. Petersson, H. Nakatsuji, M. Caricato, X. Li, H. P. Hratchian, 
 A. F. Izmaylov, J. Bloino, G. Zheng, J. L. Sonnenberg, M. Hada, 
 M. Ehara, K. Toyota, R. Fukuda, J. Hasegawa, M. Ishida, T. Nakajima, 
 Y. Honda, O. Kitao, H. Nakai, T. Vreven, J. A. Montgomery, Jr., 
 J. E. Peralta, F. Ogliaro, M. Bearpark, J. J. Heyd, E. Brothers, 
 K. N. Kudin, V. N. Staroverov, R. Kobayashi, J. Normand, 
 K. Raghavachari, A. Rendell, J. C. Burant, S. S. Iyengar, J. Tomasi, 
 M. Cossi, N. Rega, J. M. Millam, M. Klene, J. E. Knox, J. B. Cross, 
 V. Bakken, C. Adamo, J. Jaramillo, R. Gomperts, R. E. Stratmann, 
 O. Yazyev, A. J. Austin, R. Cammi, C. Pomelli, J. W. Ochterski, 
 R. L. Martin, K. Morokuma, V. G. Zakrzewski, G. A. Voth, 
 P. Salvador, J. J. Dannenberg, S. Dapprich, A. D. Daniels, 
 O. Farkas, J. B. Foresman, J. V. Ortiz, J. Cioslowski, 
 and D. J. Fox, Gaussian, Inc., Wallingford CT, 2009.
 
 ******************************************
 Gaussian 09:  EM64L-G09RevA.02 11-Jun-2009
                26-May-2021 
 ******************************************
 %chk=c2h6_042.chk
 %mem=100MB
 --------------------------------
 #p b3lyp/6-31+g(d,p) force nosym
 --------------------------------
 1/10=7,30=1,38=1/1,3;
 2/12=2,15=1,17=6,18=5,40=1/2;
 3/5=1,6=6,7=111,11=2,16=1,25=1,30=1,71=1,74=-5/1,2,3;
 4//1;
 5/5=2,38=5/2;
 6/7=2,8=2,9=2,10=2,28=1/1;
 7/29=1,30=1/1,2,3,16;
 1/10=7,30=1/3;
 99//99;
 Leave Link    1 at Wed May 26 19:14:46 2021, MaxMem=   13107200 cpu:       0.0
 (Enter /programs/64bit/g09/g09-gfortran/bin/l101.exe)
 -------------
 c2h6 molecule
 -------------
 Symbolic Z-matrix:
 Charge =  0 Multiplicity = 1
 C1
 C2                   1    d1
 H3                   1    d2       2    a1
 H4                   1    d3       2    a2       3    t1       0
 H5                   1    d4       2    a3       3    t2       0
 H6                   2    d5       1    a4       3    t3       0
 H7                   2    d6       1    a5       6    t4       0
 H8                   2    d7       1    a6       6    t5       0
       Variables:
       Constants:
  d1                    1.56746                  
  a1                  131.63288                  
  t1                  104.05495                  
  d2                    1.09447                  
  a2                   91.66226                  
  t2                 -150.18673                  
  d3                    1.10646                  
  d4                    1.0945                   
  a3                  117.6627                   
  d5                    1.09837                  
  a4                   99.47774                  
  t3                  179.30518                  
  d6                    1.09143                  
  a5                  105.7504                   
  t4                  103.40106                  
  d7                    1.08986                  
  a6                  117.69169                  
  t5                 -119.96315                  
 
 NAtoms=      8 NQM=      8 NQMF=      0 NMic=      0 NMicF=      0 NTot=      8.
                    Isotopes and Nuclear Properties:
 (Nuclear quadrupole moments (NQMom) in fm**2, nuclear magnetic moments (NMagM)
  in nuclear magnetons)

  Atom         1           2           3           4           5           6           7           8
 IAtWgt=          12          12           1           1           1           1           1           1
 AtmWgt=  12.0000000  12.0000000   1.0078250   1.0078250   1.0078250   1.0078250   1.0078250   1.0078250
 NucSpn=           0           0           1           1           1           1           1           1
 AtZEff=   0.0000000   0.0000000   0.0000000   0.0000000   0.0000000   0.0000000   0.0000000   0.0000000
 NQMom=    0.0000000   0.0000000   0.0000000   0.0000000   0.0000000   0.0000000   0.0000000   0.0000000
 NMagM=    0.0000000   0.0000000   2.7928460   2.7928460   2.7928460   2.7928460   2.7928460   2.7928460
 Leave Link  101 at Wed May 26 19:14:46 2021, MaxMem=   13107200 cpu:       0.0
 (Enter /programs/64bit/g09/g09-gfortran/bin/l103.exe)

 GradGradGradGradGradGradGradGradGradGradGradGradGradGradGradGradGradGrad
 Berny optimization.
 Initialization pass.
                       ----------------------------
                       !    Initial Parameters    !
                       ! (Angstroms and Degrees)  !
 ----------------------                            ----------------------
 !      Name          Value   Derivative information (Atomic Units)     !
 ------------------------------------------------------------------------
 !       d1          1.5675   Frozen                                    !
 !       a1        131.6329   Frozen                                    !
 !       t1        104.055    Frozen                                    !
 !       d2          1.0945   Frozen                                    !
 !       a2         91.6623   Frozen                                    !
 !       t2       -150.1867   Frozen                                    !
 !       d3          1.1065   Frozen                                    !
 !       d4          1.0945   Frozen                                    !
 !       a3        117.6627   Frozen                                    !
 !       d5          1.0984   Frozen                                    !
 !       a4         99.4777   Frozen                                    !
 !       t3        179.3052   Frozen                                    !
 !       d6          1.0914   Frozen                                    !
 !       a5        105.7504   Frozen                                    !
 !       t4        103.4011   Frozen                                    !
 !       d7          1.0899   Frozen                                    !
 !       a6        117.6917   Frozen                                    !
 !       t5       -119.9632   Frozen                                    !
 ------------------------------------------------------------------------
 Trust Radius=3.00D-01 FncErr=1.00D-07 GrdErr=1.00D-07
 Number of steps in this run=   2 maximum allowed number of steps=   2.
 GradGradGradGradGradGradGradGradGradGradGradGradGradGradGradGradGradGrad

 Leave Link  103 at Wed May 26 19:14:46 2021, MaxMem=   13107200 cpu:       0.0
 (Enter /programs/64bit/g09/g09-gfortran/bin/l202.exe)
                          Input orientation:                          
 ---------------------------------------------------------------------
 Center     Atomic      Atomic             Coordinates (Angstroms)
 Number     Number       Type             X           Y           Z
 ---------------------------------------------------------------------
      1          6           0        0.000000    0.000000    0.000000
      2          6           0        0.000000    0.000000    1.567461
      3          1           0        0.818028    0.000000   -0.727119
      4          1           0       -0.268592   -1.072880   -0.032096
      5          1           0       -0.841093    0.481957   -0.508137
      6          1           0       -1.083297    0.013138    1.748324
      7          1           0        0.231049   -1.024724    1.863727
      8          1           0        0.492080    0.830144    2.073935
 ---------------------------------------------------------------------
                    Distance matrix (angstroms):
                    1          2          3          4          5
     1  C    0.000000
     2  C    1.567461   0.000000
     3  H    1.094473   2.436035   0.000000
     4  H    1.106455   1.944684   1.677758   0.000000
     5  H    1.094497   2.290815   1.741527   1.723918   0.000000
     6  H    2.056779   1.098369   3.121381   2.238989   2.317341
     7  H    2.139374   1.091429   2.847294   1.961148   3.007543
     8  H    2.287464   1.089862   2.939606   2.938621   2.926719
                    6          7          8
     6  H    0.000000
     7  H    1.678684   0.000000
     8  H    1.804255   1.884904   0.000000
 Symmetry turned off by external request.
 Stoichiometry    C2H6
 Framework group  C1[X(C2H6)]
 Deg. of freedom    18
 Full point group                 C1      NOp   1
 Rotational constants (GHZ):     83.5295621     19.3566306     19.2060300
 Leave Link  202 at Wed May 26 19:14:46 2021, MaxMem=   13107200 cpu:       0.0
 (Enter /programs/64bit/g09/g09-gfortran/bin/l301.exe)
 Standard basis: 6-31+G(d,p) (6D, 7F)
 Ernie: Thresh=  0.10000D-02 Tol=  0.10000D-05 Strict=F.
 Integral buffers will be    131072 words long.
 Raffenetti 2 integral format.
 Two-electron integral symmetry is turned off.
    68 basis functions,   106 primitive gaussians,    68 cartesian basis functions
     9 alpha electrons        9 beta electrons
       nuclear repulsion energy        41.8984022949 Hartrees.
 IExCor=  402 DFT=T Ex+Corr=B3LYP ExCW=0 ScaHFX=  0.200000
 ScaDFX=  0.800000  0.720000  1.000000  0.810000 ScalE2=  1.000000  1.000000
 IRadAn=      0 IRanWt=     -1 IRanGd=            0 ICorTp=0
 NAtoms=    8 NActive=    8 NUniq=    8 SFac= 7.50D-01 NAtFMM=   80 NAOKFM=F Big=F
 Leave Link  301 at Wed May 26 19:14:46 2021, MaxMem=   13107200 cpu:       0.0
 (Enter /programs/64bit/g09/g09-gfortran/bin/l302.exe)
 NPDir=0 NMtPBC=     1 NCelOv=     1 NCel=       1 NClECP=     1 NCelD=      1
         NCelK=      1 NCelE2=     1 NClLst=     1 CellRange=     0.0.
 One-electron integrals computed using PRISM.
 NBasis=    68 RedAO= T  NBF=    68
 NBsUse=    68 1.00D-06 NBFU=    68
 Precomputing XC quadrature grid using
 IXCGrd= 2 IRadAn=           0 IRanWt=          -1 IRanGd=           0 AccXCQ= 1.00D-10.
 NRdTot=     510 NPtTot=       65100 NUsed=       68787 NTot=       68819
 NSgBfM=    68    68    68    68    68 NAtAll=     8     8.
 Leave Link  302 at Wed May 26 19:14:47 2021, MaxMem=   13107200 cpu:       0.1
 (Enter /programs/64bit/g09/g09-gfortran/bin/l303.exe)
 DipDrv:  MaxL=1.
 Leave Link  303 at Wed May 26 19:14:47 2021, MaxMem=   13107200 cpu:       0.0
 (Enter /programs/64bit/g09/g09-gfortran/bin/l401.exe)
 Harris functional with IExCor=  402 diagonalized for initial guess.
 ExpMin= 4.38D-02 ExpMax= 3.05D+03 ExpMxC= 4.57D+02 IAcc=2 IRadAn=         0 AccDes= 0.00D+00
 HarFok:  IExCor=  402 AccDes= 0.00D+00 IRadAn=         0 IDoV= 1
 ScaDFX=  1.000000  1.000000  1.000000  1.000000
 FoFCou: FMM=F IPFlag=           0 FMFlag=      100000 FMFlg1=           0
         NFxFlg=           0 DoJE=T BraDBF=F KetDBF=T FulRan=T
         Omega=  0.000000  0.000000  1.000000  0.000000  0.000000 ICntrl=     500 IOpCl=  0
         NMat0=    1 NMatS0=    1 NMatT0=    0 NMatD0=    1 NMtDS0=    0 NMtDT0=    0
         I1Cent=           4 NGrid=           0.
 Symmetry not used in FoFCou.
 Harris En= -79.8640658165115    
 Leave Link  401 at Wed May 26 19:14:47 2021, MaxMem=   13107200 cpu:       0.8
 (Enter /programs/64bit/g09/g09-gfortran/bin/l502.exe)
 Closed shell SCF:
 Requested convergence on RMS density matrix=1.00D-08 within 128 cycles.
 Requested convergence on MAX density matrix=1.00D-06.
 Requested convergence on             energy=1.00D-06.
 No special actions if energy rises.
 Using DIIS extrapolation, IDIIS=  1040.
 Two-electron integral symmetry not used.
        68702 words used for storage of precomputed grid.
 Keep R1 ints in memory in canonical form, NReq=3743087.
 IEnd=      101552 IEndB=      101552 NGot=    13107200 MDV=    10273922
 LenX=    10273922 LenY=    10268857
 Symmetry not used in FoFDir.
 MinBra= 0 MaxBra= 2 Meth= 1.
 IRaf=       0 NMat=   1 IRICut=       1 DoRegI=T DoRafI=F ISym2E= 0 JSym2E=0.

 Cycle   1  Pass 1  IDiag  1:
 E= -79.6848821560206    
 DIIS: error= 3.86D-02 at cycle   1 NSaved=   1.
 NSaved= 1 IEnMin= 1 EnMin= -79.6848821560206     IErMin= 1 ErrMin= 3.86D-02
 ErrMax= 3.86D-02 EMaxC= 1.00D-01 BMatC= 1.10D-01 BMatP= 1.10D-01
 IDIUse=3 WtCom= 6.14D-01 WtEn= 3.86D-01
 Coeff-Com:  0.100D+01
 Coeff-En:   0.100D+01
 Coeff:      0.100D+01
 Gap=     0.254 Goal=   None    Shift=    0.000
 GapD=    0.254 DampG=1.000 DampE=0.500 DampFc=0.5000 IDamp=-1.
 Damping current iteration by 5.00D-01
 RMSDP=1.01D-02 MaxDP=1.41D-01              OVMax= 2.04D-01

 Cycle   2  Pass 1  IDiag  1:
 E= -79.7365189118556     Delta-E=       -0.051636755835 Rises=F Damp=T
 DIIS: error= 1.11D-02 at cycle   2 NSaved=   2.
 NSaved= 2 IEnMin= 2 EnMin= -79.7365189118556     IErMin= 2 ErrMin= 1.11D-02
 ErrMax= 1.11D-02 EMaxC= 1.00D-01 BMatC= 4.74D-03 BMatP= 1.10D-01
 IDIUse=3 WtCom= 8.89D-01 WtEn= 1.11D-01
 Coeff-Com:  0.112D+00 0.888D+00
 Coeff-En:   0.191D+00 0.809D+00
 Coeff:      0.121D+00 0.879D+00
 Gap=     0.352 Goal=   None    Shift=    0.000
 RMSDP=1.67D-03 MaxDP=1.72D-02 DE=-5.16D-02 OVMax= 1.15D-01

 Cycle   3  Pass 1  IDiag  1:
 E= -79.8100217725293     Delta-E=       -0.073502860674 Rises=F Damp=F
 DIIS: error= 1.69D-03 at cycle   3 NSaved=   3.
 NSaved= 3 IEnMin= 3 EnMin= -79.8100217725293     IErMin= 3 ErrMin= 1.69D-03
 ErrMax= 1.69D-03 EMaxC= 1.00D-01 BMatC= 2.30D-04 BMatP= 4.74D-03
 IDIUse=3 WtCom= 9.83D-01 WtEn= 1.69D-02
 Coeff-Com:  0.917D-02 0.142D+00 0.849D+00
 Coeff-En:   0.000D+00 0.000D+00 0.100D+01
 Coeff:      0.902D-02 0.140D+00 0.851D+00
 Gap=     0.339 Goal=   None    Shift=    0.000
 RMSDP=3.16D-04 MaxDP=2.69D-03 DE=-7.35D-02 OVMax= 5.05D-03

 Cycle   4  Pass 1  IDiag  1:
 E= -79.8102247673778     Delta-E=       -0.000202994849 Rises=F Damp=F
 DIIS: error= 5.22D-04 at cycle   4 NSaved=   4.
 NSaved= 4 IEnMin= 4 EnMin= -79.8102247673778     IErMin= 4 ErrMin= 5.22D-04
 ErrMax= 5.22D-04 EMaxC= 1.00D-01 BMatC= 1.93D-05 BMatP= 2.30D-04
 IDIUse=3 WtCom= 9.95D-01 WtEn= 5.22D-03
 Coeff-Com: -0.154D-03 0.139D-02 0.212D+00 0.786D+00
 Coeff-En:   0.000D+00 0.000D+00 0.000D+00 0.100D+01
 Coeff:     -0.153D-03 0.138D-02 0.211D+00 0.788D+00
 Gap=     0.339 Goal=   None    Shift=    0.000
 RMSDP=7.95D-05 MaxDP=1.03D-03 DE=-2.03D-04 OVMax= 1.79D-03

 Cycle   5  Pass 1  IDiag  1:
 E= -79.8102397813183     Delta-E=       -0.000015013941 Rises=F Damp=F
 DIIS: error= 2.57D-04 at cycle   5 NSaved=   5.
 NSaved= 5 IEnMin= 5 EnMin= -79.8102397813183     IErMin= 5 ErrMin= 2.57D-04
 ErrMax= 2.57D-04 EMaxC= 1.00D-01 BMatC= 4.10D-06 BMatP= 1.93D-05
 IDIUse=3 WtCom= 9.97D-01 WtEn= 2.57D-03
 Coeff-Com: -0.993D-04-0.306D-02 0.919D-01 0.424D+00 0.488D+00
 Coeff-En:   0.000D+00 0.000D+00 0.000D+00 0.344D-01 0.966D+00
 Coeff:     -0.990D-04-0.305D-02 0.916D-01 0.423D+00 0.489D+00
 Gap=     0.339 Goal=   None    Shift=    0.000
 RMSDP=2.55D-05 MaxDP=4.71D-04 DE=-1.50D-05 OVMax= 6.24D-04

 Cycle   6  Pass 1  IDiag  1:
 E= -79.8102438108560     Delta-E=       -0.000004029538 Rises=F Damp=F
 DIIS: error= 1.65D-05 at cycle   6 NSaved=   6.
 NSaved= 6 IEnMin= 6 EnMin= -79.8102438108560     IErMin= 6 ErrMin= 1.65D-05
 ErrMax= 1.65D-05 EMaxC= 1.00D-01 BMatC= 2.15D-08 BMatP= 4.10D-06
 IDIUse=1 WtCom= 1.00D+00 WtEn= 0.00D+00
 Coeff-Com:  0.187D-03-0.605D-03 0.645D-02 0.354D-01 0.824D-01 0.876D+00
 Coeff:      0.187D-03-0.605D-03 0.645D-02 0.354D-01 0.824D-01 0.876D+00
 Gap=     0.339 Goal=   None    Shift=    0.000
 RMSDP=2.76D-06 MaxDP=3.94D-05 DE=-4.03D-06 OVMax= 5.73D-05

 Cycle   7  Pass 1  IDiag  1:
 E= -79.8102438334133     Delta-E=       -0.000000022557 Rises=F Damp=F
 DIIS: error= 3.18D-06 at cycle   7 NSaved=   7.
 NSaved= 7 IEnMin= 7 EnMin= -79.8102438334133     IErMin= 7 ErrMin= 3.18D-06
 ErrMax= 3.18D-06 EMaxC= 1.00D-01 BMatC= 1.11D-09 BMatP= 2.15D-08
 IDIUse=1 WtCom= 1.00D+00 WtEn= 0.00D+00
 Coeff-Com:  0.757D-04-0.106D-03-0.151D-02-0.493D-02 0.726D-02 0.275D+00
 Coeff-Com:  0.724D+00
 Coeff:      0.757D-04-0.106D-03-0.151D-02-0.493D-02 0.726D-02 0.275D+00
 Coeff:      0.724D+00
 Gap=     0.339 Goal=   None    Shift=    0.000
 RMSDP=7.43D-07 MaxDP=7.10D-06 DE=-2.26D-08 OVMax= 1.28D-05

 Cycle   8  Pass 1  IDiag  1:
 E= -79.8102438347105     Delta-E=       -0.000000001297 Rises=F Damp=F
 DIIS: error= 2.46D-07 at cycle   8 NSaved=   8.
 NSaved= 8 IEnMin= 8 EnMin= -79.8102438347105     IErMin= 8 ErrMin= 2.46D-07
 ErrMax= 2.46D-07 EMaxC= 1.00D-01 BMatC= 6.51D-12 BMatP= 1.11D-09
 IDIUse=1 WtCom= 1.00D+00 WtEn= 0.00D+00
 Coeff-Com:  0.288D-05-0.150D-05-0.263D-03-0.102D-02-0.873D-03 0.140D-01
 Coeff-Com:  0.859D-01 0.902D+00
 Coeff:      0.288D-05-0.150D-05-0.263D-03-0.102D-02-0.873D-03 0.140D-01
 Coeff:      0.859D-01 0.902D+00
 Gap=     0.339 Goal=   None    Shift=    0.000
 RMSDP=7.25D-08 MaxDP=8.94D-07 DE=-1.30D-09 OVMax= 1.42D-06

 Cycle   9  Pass 1  IDiag  1:
 E= -79.8102438347185     Delta-E=       -0.000000000008 Rises=F Damp=F
 DIIS: error= 3.33D-08 at cycle   9 NSaved=   9.
 NSaved= 9 IEnMin= 9 EnMin= -79.8102438347185     IErMin= 9 ErrMin= 3.33D-08
 ErrMax= 3.33D-08 EMaxC= 1.00D-01 BMatC= 1.57D-13 BMatP= 6.51D-12
 IDIUse=1 WtCom= 1.00D+00 WtEn= 0.00D+00
 Coeff-Com: -0.867D-06 0.981D-06-0.257D-04-0.107D-03-0.223D-03-0.151D-02
 Coeff-Com:  0.599D-02 0.168D+00 0.828D+00
 Coeff:     -0.867D-06 0.981D-06-0.257D-04-0.107D-03-0.223D-03-0.151D-02
 Coeff:      0.599D-02 0.168D+00 0.828D+00
 Gap=     0.339 Goal=   None    Shift=    0.000
 RMSDP=1.12D-08 MaxDP=1.08D-07 DE=-8.04D-12 OVMax= 1.65D-07

 Cycle  10  Pass 1  IDiag  1:
 E= -79.8102438347185     Delta-E=        0.000000000000 Rises=F Damp=F
 DIIS: error= 5.91D-09 at cycle  10 NSaved=  10.
 NSaved=10 IEnMin= 9 EnMin= -79.8102438347185     IErMin=10 ErrMin= 5.91D-09
 ErrMax= 5.91D-09 EMaxC= 1.00D-01 BMatC= 3.04D-15 BMatP= 1.57D-13
 IDIUse=1 WtCom= 1.00D+00 WtEn= 0.00D+00
 Coeff-Com: -0.229D-06 0.226D-06-0.183D-06-0.389D-05-0.270D-04-0.567D-03
 Coeff-Com: -0.447D-03 0.148D-01 0.152D+00 0.834D+00
 Coeff:     -0.229D-06 0.226D-06-0.183D-06-0.389D-05-0.270D-04-0.567D-03
 Coeff:     -0.447D-03 0.148D-01 0.152D+00 0.834D+00
 Gap=     0.339 Goal=   None    Shift=    0.000
 RMSDP=1.40D-09 MaxDP=1.26D-08 DE= 0.00D+00 OVMax= 2.20D-08

 SCF Done:  E(RB3LYP) =  -79.8102438347     A.U. after   10 cycles
             Convg  =    0.1402D-08             -V/T =  2.0109
 KE= 7.894603987025D+01 PE=-2.674401284655D+02 EE= 6.678544246563D+01
 Leave Link  502 at Wed May 26 19:14:54 2021, MaxMem=   13107200 cpu:       6.6
 (Enter /programs/64bit/g09/g09-gfortran/bin/l601.exe)
 Copying SCF densities to generalized density rwf, IOpCl= 0 IROHF=0.

 **********************************************************************

            Population analysis using the SCF density.

 **********************************************************************

 Alpha  occ. eigenvalues --  -10.18744 -10.17912  -0.75659  -0.62051  -0.44771
 Alpha  occ. eigenvalues --   -0.42814  -0.37616  -0.33893  -0.32454
 Alpha virt. eigenvalues --    0.01443   0.02722   0.05247   0.05562   0.07881
 Alpha virt. eigenvalues --    0.08839   0.09053   0.13779   0.14395   0.18666
 Alpha virt. eigenvalues --    0.21642   0.24050   0.24948   0.28588   0.32795
 Alpha virt. eigenvalues --    0.63603   0.63890   0.65252   0.66891   0.69357
 Alpha virt. eigenvalues --    0.69766   0.88899   0.91768   0.94618   0.96864
 Alpha virt. eigenvalues --    1.04781   1.09906   1.10838   1.25912   1.35961
 Alpha virt. eigenvalues --    1.37043   1.62352   1.77451   1.81888   1.95895
 Alpha virt. eigenvalues --    2.04224   2.06428   2.12119   2.12867   2.20412
 Alpha virt. eigenvalues --    2.24062   2.30385   2.36896   2.45680   2.51470
 Alpha virt. eigenvalues --    2.65714   2.75142   2.77065   2.81059   2.87432
 Alpha virt. eigenvalues --    2.95925   3.19853   3.29392   3.39634   3.42172
 Alpha virt. eigenvalues --    3.49882   3.55631   4.34401   4.60610
          Condensed to atoms (all electrons):
              1          2          3          4          5          6
     1  C    5.163624   0.221857   0.378391   0.418554   0.403253  -0.057088
     2  C    0.221857   5.126999  -0.004053  -0.085585  -0.033823   0.409716
     3  H    0.378391  -0.004053   0.545906  -0.037100  -0.033330   0.003946
     4  H    0.418554  -0.085585  -0.037100   0.619180  -0.032585  -0.004902
     5  H    0.403253  -0.033823  -0.033330  -0.032585   0.552892  -0.010072
     6  H   -0.057088   0.409716   0.003946  -0.004902  -0.010072   0.572970
     7  H   -0.075769   0.439489  -0.000470  -0.016972   0.004584  -0.041643
     8  H   -0.023970   0.385347  -0.002893   0.006260  -0.000020  -0.025510
              7          8
     1  C   -0.075769  -0.023970
     2  C    0.439489   0.385347
     3  H   -0.000470  -0.002893
     4  H   -0.016972   0.006260
     5  H    0.004584  -0.000020
     6  H   -0.041643  -0.025510
     7  H    0.558168  -0.020996
     8  H   -0.020996   0.531029
 Mulliken atomic charges:
              1
     1  C   -0.428852
     2  C   -0.459946
     3  H    0.149604
     4  H    0.133148
     5  H    0.149101
     6  H    0.152583
     7  H    0.153609
     8  H    0.150753
 Sum of Mulliken atomic charges =   0.00000
 Mulliken charges with hydrogens summed into heavy atoms:
              1
     1  C    0.003001
     2  C   -0.003001
 Sum of Mulliken charges with hydrogens summed into heavy atoms =   0.00000
 Electronic spatial extent (au):  <R**2>=            149.9094
 Charge=              0.0000 electrons
 Dipole moment (field-independent basis, Debye):
    X=             -0.1922    Y=             -0.2377    Z=              0.0447  Tot=              0.3089
 Quadrupole moment (field-independent basis, Debye-Ang):
   XX=            -15.4054   YY=            -15.1601   ZZ=            -15.4372
   XY=              0.0141   XZ=             -0.2704   YZ=             -0.2204
 Traceless Quadrupole moment (field-independent basis, Debye-Ang):
   XX=             -0.0712   YY=              0.1741   ZZ=             -0.1029
   XY=              0.0141   XZ=             -0.2704   YZ=             -0.2204
 Octapole moment (field-independent basis, Debye-Ang**2):
  XXX=              0.8701  YYY=              1.1933  ZZZ=            -36.9375  XYY=              0.7641
  XXY=              0.9097  XXZ=            -12.0519  XZZ=              0.7748  YZZ=              0.9585
  YYZ=            -10.4739  XYZ=              0.7092
 Hexadecapole moment (field-independent basis, Debye-Ang**3):
 XXXX=            -31.0971 YYYY=            -31.1838 ZZZZ=           -158.0396 XXXY=             -0.3671
 XXXZ=              0.2564 YYYX=              0.0695 YYYZ=              0.1534 ZZZX=              1.7939
 ZZZY=              1.7754 XXYY=            -10.8060 XXZZ=            -30.5005 YYZZ=            -28.9820
 XXYZ=              0.3948 YYXZ=              1.3271 ZZXY=              0.9916
 N-N= 4.189840229490D+01 E-N=-2.674401284301D+02  KE= 7.894603987025D+01
 No NMR shielding tensors so no spin-rotation constants.
 Leave Link  601 at Wed May 26 19:14:54 2021, MaxMem=   13107200 cpu:       0.0
 (Enter /programs/64bit/g09/g09-gfortran/bin/l701.exe)
 Compute integral first derivatives.
 ... and contract with generalized density number  0.
 Leave Link  701 at Wed May 26 19:14:54 2021, MaxMem=   13107200 cpu:       0.1
 (Enter /programs/64bit/g09/g09-gfortran/bin/l702.exe)
 L702 exits ... SP integral derivatives will be done elsewhere.
 Leave Link  702 at Wed May 26 19:14:54 2021, MaxMem=   13107200 cpu:       0.0
 (Enter /programs/64bit/g09/g09-gfortran/bin/l703.exe)
 Compute integral first derivatives, UseDBF=F ICtDFT=           0.
 Integral derivatives from FoFDir, PRISM(SPDF).
 Calling FoFJK, ICntrl=      2127 FMM=F ISym2X=0 I1Cent= 0 IOpClX= 0 NMat=1 NMatS=1 NMatT=0.
 FoFCou: FMM=F IPFlag=           0 FMFlag=      100000 FMFlg1=         800
         NFxFlg=           0 DoJE=F BraDBF=F KetDBF=F FulRan=T
         Omega=  0.000000  0.000000  1.000000  0.000000  0.000000 ICntrl=    2127 IOpCl=  0
         NMat0=    1 NMatS0=    1 NMatT0=    0 NMatD0=    1 NMtDS0=    0 NMtDT0=    0
         I1Cent=           0 NGrid=           0.
 Symmetry not used in FoFCou.
 Leave Link  703 at Wed May 26 19:14:56 2021, MaxMem=   13107200 cpu:       1.4
 (Enter /programs/64bit/g09/g09-gfortran/bin/l716.exe)
 Dipole        =-7.56087046D-02-9.35004880D-02 1.75791173D-02
 -------------------------------------------------------------------
 Center     Atomic                   Forces (Hartrees/Bohr)
 Number     Number              X              Y              Z
 -------------------------------------------------------------------
      1        6          -0.017547629   -0.046086163   -0.005135258
      2        6          -0.016359443    0.008135831   -0.026312173
      3        1           0.015588117    0.013480575    0.017293929
      4        1          -0.005825926    0.001949365   -0.020739857
      5        1           0.000775424    0.010220130    0.008595983
      6        1           0.001712073    0.009822147    0.009864608
      7        1           0.018388776    0.007572440    0.011737341
      8        1           0.003268608   -0.005094326    0.004695427
 -------------------------------------------------------------------
 Cartesian Forces:  Max     0.046086163 RMS     0.015334674
 -----------------------------------------------------------------------------------------------
                       Internal Coordinate Forces (Hartree/Bohr or radian)
  Cent   Atom   N1       Length/X         N2         Alpha/Y        N3         Beta/Z          J
 -----------------------------------------------------------------------------------------------
      1  C 
      2  C        1  -0.000015(     1)
      3  H        1   0.000162(     2)      2  -0.048153(     8)
      4  H        1   0.000126(     3)      2   0.043376(     9)      3   0.012801(    14)     0
      5  H        1  -0.000086(     4)      2  -0.019980(    10)      3   0.016950(    15)     0
      6  H        2   0.000053(     5)      1   0.020740(    11)      3   0.008901(    16)     0
      7  H        2  -0.000031(     6)      1   0.025171(    12)      6   0.038915(    17)     0
      8  H        2  -0.000223(     7)      1   0.011162(    13)      6  -0.009865(    18)     0
 -----------------------------------------------------------------------------------------------
 Internal  Forces:  Max     0.048152723 RMS     0.020989198
 Force constants in Cartesian coordinates: 
                1             2             3             4             5 
      1  0.629011D+00
      2 -0.327685D-01  0.569076D+00
      3 -0.317490D-01 -0.441575D-01  0.696907D+00
      4 -0.978037D-01 -0.148063D-02  0.609012D-02  0.614330D+00
      5 -0.154286D-02 -0.871631D-01  0.120814D-01  0.477087D-01  0.705611D+00
      6 -0.756188D-02 -0.422065D-02 -0.262184D+00  0.483127D-01  0.381049D-01
      7 -0.224879D+00  0.483423D-02  0.114551D+00  0.177459D-01  0.688569D-03
      8  0.177231D-01 -0.727143D-01 -0.654840D-02  0.104442D-02  0.569624D-02
      9  0.132898D+00  0.543864D-02 -0.214135D+00  0.199646D-01  0.774659D-03
     10 -0.771562D-01 -0.675423D-01 -0.237383D-03  0.328946D-03 -0.771955D-04
     11 -0.631251D-01 -0.312168D+00 -0.776147D-02  0.103041D-03  0.770900D-03
     12 -0.397710D-02 -0.235605D-01 -0.683498D-01 -0.619716D-02 -0.251232D-01
     13 -0.240374D+00  0.938480D-01 -0.886551D-01  0.989999D-02 -0.309562D-02
     14  0.766148D-01 -0.113538D+00  0.463859D-01 -0.365921D-02  0.753107D-02
     15 -0.971718D-01  0.622794D-01 -0.152238D+00 -0.198576D-01  0.122671D-01
     16  0.428790D-02 -0.622253D-04  0.000000D+00 -0.330288D+00  0.136034D-02
     17 -0.271899D-03  0.175637D-03  0.000000D+00 -0.468863D-02 -0.760549D-01
     18  0.257027D-01 -0.385464D-03  0.000000D+00  0.503109D-01 -0.109253D-01
     19  0.209418D-02 -0.138037D-02  0.000000D+00 -0.836648D-01  0.382905D-01
     20 -0.123584D-02  0.681089D-02  0.000000D+00  0.498091D-01 -0.317346D+00
     21 -0.590773D-02  0.246341D-01  0.000000D+00 -0.326828D-01  0.709095D-01
     22  0.481983D-02  0.455178D-02  0.000000D+00 -0.130548D+00 -0.833324D-01
     23  0.460640D-02  0.952097D-02  0.000000D+00 -0.888367D-01 -0.239045D+00
     24 -0.122331D-01 -0.200279D-01  0.000000D+00 -0.659408D-01 -0.980891D-01
                6             7             8             9            10 
      6  0.579205D+00
      7  0.000000D+00  0.222116D+00
      8  0.000000D+00 -0.458278D-02  0.531870D-01
      9  0.000000D+00 -0.136007D+00 -0.515575D-02  0.189997D+00
     10  0.000000D+00 -0.302156D-02 -0.264009D-01 -0.339934D-02  0.664281D-01
     11  0.000000D+00  0.661398D-03  0.587492D-02  0.744090D-03  0.659493D-01
     12  0.000000D+00  0.317698D-02  0.245509D-01  0.357419D-02 -0.649873D-03
     13  0.000000D+00 -0.119606D-01  0.122366D-01 -0.134560D-01  0.134354D-01
     14  0.000000D+00 -0.160141D-02  0.781033D-02 -0.180163D-02  0.279664D-01
     15  0.000000D+00  0.182789D-01 -0.128468D-01  0.205642D-01  0.428659D-02
     16  0.444182D-01  0.000000D+00  0.881294D-05  0.000000D+00  0.632321D-05
     17 -0.979857D-02  0.000000D+00  0.726693D-03  0.000000D+00  0.521396D-03
     18 -0.718711D-01  0.000000D+00  0.000000D+00  0.000000D+00  0.000000D+00
     19 -0.279128D-01  0.000000D+00 -0.731171D-03  0.000000D+00 -0.524609D-03
     20  0.652706D-01  0.000000D+00 -0.164860D-03  0.000000D+00 -0.118286D-03
     21 -0.989540D-01  0.000000D+00  0.000000D+00  0.000000D+00  0.000000D+00
     22 -0.572562D-01  0.000000D+00  0.701834D-03  0.000000D+00  0.503560D-03
     23 -0.893563D-01  0.000000D+00 -0.416022D-03  0.000000D+00 -0.298493D-03
     24 -0.146196D+00  0.000000D+00  0.000000D+00  0.000000D+00  0.000000D+00
               11            12            13            14            15 
     11  0.313028D+00
     12  0.816492D-02  0.622884D-01
     13 -0.359228D-02  0.764715D-02  0.228990D+00
     14 -0.747899D-02  0.159679D-01 -0.993356D-01  0.105782D+00
     15 -0.114754D-02  0.248726D-02  0.944640D-01 -0.605522D-01  0.129187D+00
     16 -0.158300D-05  0.000000D+00 -0.369742D-05 -0.645259D-05  0.000000D+00
     17 -0.130530D-03  0.000000D+00 -0.304880D-03 -0.532064D-03  0.000000D+00
     18  0.000000D+00  0.000000D+00  0.000000D+00  0.000000D+00  0.000000D+00
     19  0.131334D-03  0.000000D+00  0.306759D-03  0.535343D-03  0.000000D+00
     20  0.296125D-04  0.000000D+00  0.691662D-04  0.120706D-03  0.000000D+00
     21  0.000000D+00  0.000000D+00  0.000000D+00  0.000000D+00  0.000000D+00
     22 -0.126065D-03  0.000000D+00 -0.294450D-03 -0.513863D-03  0.000000D+00
     23  0.747267D-04  0.000000D+00  0.174540D-03  0.304600D-03  0.000000D+00
     24  0.000000D+00  0.000000D+00  0.000000D+00  0.000000D+00  0.000000D+00
               16            17            18            19            20 
     16  0.330878D+00
     17 -0.223949D-02  0.606653D-01
     18 -0.462707D-01  0.677738D-02  0.609944D-01
     19 -0.143798D-02  0.343009D-01 -0.111045D-01  0.694853D-01
     20 -0.210363D-03  0.550465D-02 -0.165984D-02 -0.549772D-01  0.313540D+00
     21  0.393834D-03 -0.771079D-02  0.291902D-02  0.258654D-01 -0.710604D-01
     22 -0.344306D-02 -0.273174D-01 -0.186383D-01  0.137411D-01  0.666346D-02
     23  0.115096D-02  0.964517D-02  0.619319D-02 -0.161693D-01 -0.849492D-02
     24  0.145872D-02  0.107320D-01  0.795760D-02  0.131519D-01  0.744966D-02
               21            22            23            24 
     21  0.805249D-01
     22  0.123313D-01  0.115221D+00
     23 -0.167723D-01  0.993726D-01  0.228411D+00
     24  0.155101D-01  0.635632D-01  0.999354D-01  0.122728D+00
 Force constants in internal coordinates: 
                1             2             3             4             5 
      1  0.262184D+00
      2  0.000000D+00  0.343008D+00
      3  0.000000D+00  0.000000D+00  0.329782D+00
      4  0.000000D+00  0.000000D+00  0.000000D+00  0.342980D+00
      5  0.000000D+00  0.000000D+00  0.000000D+00  0.000000D+00  0.338631D+00
      6  0.000000D+00  0.000000D+00  0.000000D+00  0.000000D+00  0.000000D+00
      7  0.000000D+00  0.000000D+00  0.000000D+00  0.000000D+00  0.000000D+00
      8  0.000000D+00  0.000000D+00  0.000000D+00  0.000000D+00  0.000000D+00
      9  0.000000D+00  0.000000D+00  0.000000D+00  0.000000D+00  0.000000D+00
     10  0.000000D+00  0.000000D+00  0.000000D+00  0.000000D+00  0.000000D+00
     11  0.000000D+00  0.000000D+00  0.000000D+00  0.000000D+00  0.000000D+00
     12  0.000000D+00  0.000000D+00  0.000000D+00  0.000000D+00  0.000000D+00
     13  0.000000D+00  0.000000D+00  0.000000D+00  0.000000D+00  0.000000D+00
     14  0.000000D+00  0.000000D+00  0.000000D+00  0.000000D+00  0.000000D+00
     15  0.000000D+00  0.000000D+00  0.000000D+00  0.000000D+00  0.000000D+00
     16  0.000000D+00  0.000000D+00  0.000000D+00  0.000000D+00  0.000000D+00
     17  0.000000D+00  0.000000D+00  0.000000D+00  0.000000D+00  0.000000D+00
     18  0.000000D+00  0.000000D+00  0.000000D+00  0.000000D+00  0.000000D+00
                6             7             8             9            10 
      6  0.346481D+00
      7  0.000000D+00  0.348286D+00
      8  0.000000D+00  0.000000D+00  0.295605D+00
      9  0.000000D+00  0.000000D+00  0.206887D-01  0.271331D+00
     10  0.000000D+00  0.000000D+00  0.132887D+00  0.121497D-01  0.301348D+00
     11  0.000000D+00  0.000000D+00  0.000000D+00  0.000000D+00  0.000000D+00
     12  0.000000D+00  0.000000D+00  0.000000D+00  0.000000D+00  0.000000D+00
     13  0.000000D+00  0.000000D+00  0.000000D+00  0.000000D+00  0.000000D+00
     14  0.000000D+00  0.000000D+00 -0.201166D-01 -0.114249D-01  0.216553D-01
     15  0.000000D+00  0.000000D+00  0.418370D-01 -0.676579D-01  0.238406D-01
     16  0.000000D+00  0.000000D+00  0.000000D+00  0.000000D+00  0.000000D+00
     17  0.000000D+00  0.000000D+00  0.000000D+00  0.000000D+00  0.000000D+00
     18  0.000000D+00  0.000000D+00  0.000000D+00  0.000000D+00  0.000000D+00
               11            12            13            14            15 
     11  0.229440D+00
     12  0.131634D-01  0.252552D+00
     13  0.389493D-01  0.773090D-01  0.257048D+00
     14  0.000000D+00  0.000000D+00  0.000000D+00  0.217967D+00
     15  0.000000D+00  0.000000D+00  0.000000D+00 -0.122625D+00  0.169588D+00
     16  0.933439D-04 -0.225717D-03 -0.163354D-03  0.690000D-02  0.690000D-02
     17 -0.467754D-01  0.408463D-01  0.668029D-01  0.230000D-02  0.230000D-02
     18  0.736475D-01 -0.748778D-01 -0.157813D-01  0.230000D-02  0.230000D-02
               16            17            18 
     16  0.208259D-01
     17  0.766973D-02  0.227365D+00
     18  0.601897D-02 -0.788718D-01  0.191140D+00
 Leave Link  716 at Wed May 26 19:14:56 2021, MaxMem=   13107200 cpu:       0.0
 (Enter /programs/64bit/g09/g09-gfortran/bin/l103.exe)

 GradGradGradGradGradGradGradGradGradGradGradGradGradGradGradGradGradGrad
 Berny optimization.
 Search for a local minimum.
 Step number   1 out of a maximum of    2
 All quantities printed in internal units (Hartrees-Bohrs-Radians)
 Second derivative matrix not updated -- first step.
 The second derivative matrix:
                          d1        a1        t1        d2        a2
           d1           0.26218
           a1           0.00000   0.29560
           t1           0.00000  -0.02012   0.21797
           d2           0.00000   0.00000  -0.00000   0.34301
           a2           0.00000   0.02069  -0.01142   0.00000   0.27133
           t2           0.00000   0.04184  -0.12262   0.00000  -0.06766
           d3          -0.00000   0.00000  -0.00000  -0.00000   0.00000
           d4           0.00000   0.00000   0.00000  -0.00000   0.00000
           a3          -0.00000   0.13289   0.02166   0.00000   0.01215
           d5          -0.00000   0.00000  -0.00000   0.00000  -0.00000
           a4          -0.00000   0.00000   0.00000   0.00000   0.00000
           t3          -0.00000   0.00000   0.00690   0.00000  -0.00000
           d6           0.00000   0.00000   0.00000   0.00000   0.00000
           a5          -0.00000   0.00000  -0.00000   0.00000  -0.00000
           t4          -0.00000   0.00000   0.00230   0.00000  -0.00000
           d7           0.00000   0.00000   0.00000   0.00000   0.00000
           a6           0.00000   0.00000   0.00000   0.00000  -0.00000
           t5          -0.00000   0.00000   0.00230   0.00000  -0.00000
                          t2        d3        d4        a3        d5
           t2           0.16959
           d3          -0.00000   0.32978
           d4          -0.00000  -0.00000   0.34298
           a3           0.02384   0.00000  -0.00000   0.30135
           d5          -0.00000   0.00000   0.00000  -0.00000   0.33863
           a4           0.00000  -0.00000  -0.00000   0.00000  -0.00000
           t3           0.00690   0.00000   0.00000  -0.00000   0.00000
           d6           0.00000  -0.00000   0.00000  -0.00000   0.00000
           a5          -0.00000  -0.00000   0.00000  -0.00000  -0.00000
           t4           0.00230  -0.00000  -0.00000  -0.00000   0.00000
           d7          -0.00000  -0.00000  -0.00000  -0.00000  -0.00000
           a6           0.00000   0.00000   0.00000   0.00000  -0.00000
           t5           0.00230   0.00000   0.00000  -0.00000  -0.00000
                          a4        t3        d6        a5        t4
           a4           0.22944
           t3           0.00009   0.02083
           d6           0.00000   0.00000   0.34648
           a5           0.01316  -0.00023   0.00000   0.25255
           t4          -0.04678   0.00767   0.00000   0.04085   0.22736
           d7          -0.00000  -0.00000   0.00000   0.00000   0.00000
           a6           0.03895  -0.00016   0.00000   0.07731   0.06680
           t5           0.07365   0.00602  -0.00000  -0.07488  -0.07887
                          d7        a6        t5
           d7           0.34829
           a6          -0.00000   0.25705
           t5          -0.00000  -0.01578   0.19114
     Eigenvalues --- 1000.000001000.000001000.000001000.000001000.00000
     Eigenvalues --- 1000.000001000.000001000.000001000.000001000.00000
     Eigenvalues --- 1000.000001000.000001000.000001000.000001000.00000
     Eigenvalues --- 1000.000001000.000001000.00000
 Angle between quadratic step and forces=  90.00 degrees.
 Linear search not attempted -- first point.
 Variable       Old X    -DE/DX   Delta X   Delta X   Delta X     New X
                                 (Linear)    (Quad)   (Total)
    d1        2.96207  -0.00001   0.00000   0.00000   0.00000   2.96207
    a1        2.29743  -0.04815   0.00000   0.00000   0.00000   2.29743
    t1        1.81610   0.01280   0.00000   0.00000   0.00000   1.81610
    d2        2.06825   0.00016   0.00000   0.00000   0.00000   2.06825
    a2        1.59981   0.04338   0.00000   0.00000   0.00000   1.59981
    t2       -2.62125   0.01695   0.00000   0.00000   0.00000  -2.62125
    d3        2.09090   0.00013   0.00000   0.00000   0.00000   2.09090
    d4        2.06830  -0.00009   0.00000   0.00000   0.00000   2.06830
    a3        2.05360  -0.01998   0.00000   0.00000   0.00000   2.05360
    d5        2.07562   0.00005   0.00000   0.00000   0.00000   2.07562
    a4        1.73621   0.02074   0.00000   0.00000   0.00000   1.73621
    t3        3.12947   0.00890   0.00000   0.00000   0.00000   3.12947
    d6        2.06250  -0.00003   0.00000   0.00000   0.00000   2.06250
    a5        1.84569   0.02517   0.00000   0.00000   0.00000   1.84569
    t4        1.80469   0.03892   0.00000   0.00000   0.00000   1.80469
    d7        2.05954  -0.00022   0.00000   0.00000   0.00000   2.05954
    a6        2.05411   0.01116   0.00000   0.00000   0.00000   2.05411
    t5       -2.09375  -0.00986   0.00000   0.00000   0.00000  -2.09375
         Item               Value     Threshold  Converged?
 Maximum Force            0.000000     0.000450     YES
 RMS     Force            0.000000     0.000300     YES
 Maximum Displacement     0.000000     0.001800     YES
 RMS     Displacement     0.000000     0.001200     YES
 Predicted change in Energy=-0.000000D+00
 Optimization completed.
    -- Stationary point found.
                       ----------------------------
                       !   Optimized Parameters   !
                       ! (Angstroms and Degrees)  !
 ----------------------                            ----------------------
 !      Name          Value   Derivative information (Atomic Units)     !
 ------------------------------------------------------------------------
 !       d1          1.5675   -DE/DX =    0.0                           !
 !       a1        131.6329   -DE/DX =   -0.0482                        !
 !       t1        104.055    -DE/DX =    0.0128                        !
 !       d2          1.0945   -DE/DX =    0.0002                        !
 !       a2         91.6623   -DE/DX =    0.0434                        !
 !       t2       -150.1867   -DE/DX =    0.017                         !
 !       d3          1.1065   -DE/DX =    0.0001                        !
 !       d4          1.0945   -DE/DX =   -0.0001                        !
 !       a3        117.6627   -DE/DX =   -0.02                          !
 !       d5          1.0984   -DE/DX =    0.0001                        !
 !       a4         99.4777   -DE/DX =    0.0207                        !
 !       t3        179.3052   -DE/DX =    0.0089                        !
 !       d6          1.0914   -DE/DX =    0.0                           !
 !       a5        105.7504   -DE/DX =    0.0252                        !
 !       t4        103.4011   -DE/DX =    0.0389                        !
 !       d7          1.0899   -DE/DX =   -0.0002                        !
 !       a6        117.6917   -DE/DX =    0.0112                        !
 !       t5       -119.9632   -DE/DX =   -0.0099                        !
 ------------------------------------------------------------------------
 GradGradGradGradGradGradGradGradGradGradGradGradGradGradGradGradGradGrad

 Leave Link  103 at Wed May 26 19:14:56 2021, MaxMem=   13107200 cpu:       0.0
 (Enter /programs/64bit/g09/g09-gfortran/bin/l9999.exe)
 1\1\GINC-MOLMOD\Force\RB3LYP\6-31+G(d,p)\C2H6\OSPITE\26-May-2021\1\\#p
  b3lyp/6-31+g(d,p) force nosym\\c2h6 molecule\\0,1\C\C,1,d1\H,1,d2,2,a
 1\H,1,d3,2,a2,3,t1,0\H,1,d4,2,a3,3,t2,0\H,2,d5,1,a4,3,t3,0\H,2,d6,1,a5
 ,6,t4,0\H,2,d7,1,a6,6,t5,0\\d1=1.56746141\a1=131.63287591\t1=104.05495
 172\d2=1.09447285\a2=91.66225727\t2=-150.18673068\d3=1.10645534\d4=1.0
 9449732\a3=117.66270107\d5=1.09836949\a4=99.47773861\t3=179.30518193\d
 6=1.09142851\a5=105.75040021\t4=103.4010614\d7=1.08986172\a6=117.69168
 799\t5=-119.96315497\\Version=EM64L-G09RevA.02\HF=-79.8102438\RMSD=1.4
 02e-09\RMSF=1.533e-02\Dipole=-0.0756087,-0.0935005,0.0175791\Quadrupol
 e=-0.0529044,0.1294372,-0.0765328,0.0104593,-0.2010693,-0.1638364\PG=C
 01 [X(C2H6)]\\@


 Children are likely to live up to what you believe of them.
 -- Lady Bird Johnson
 Job cpu time:  0 days  0 hours  0 minutes  9.2 seconds.
 File lengths (MBytes):  RWF=      5 Int=      0 D2E=      0 Chk=      1 Scr=      1
 Normal termination of Gaussian 09 at Wed May 26 19:14:56 2021.
