 Entering Gaussian System, Link 0=g09
 Input=c2h6_038.com
 Output=c2h6_038.log
 Initial command:
 /programs/64bit/g09/g09-gfortran/bin/l1.exe /data/scratch/Gau-6815.inp -scrdir=/data/scratch/
 Entering Link 1 = /programs/64bit/g09/g09-gfortran/bin/l1.exe PID=      6816.
  
 Copyright (c) 1988,1990,1992,1993,1995,1998,2003,2009, Gaussian, Inc.
                  All Rights Reserved.
  
 This is part of the Gaussian(R) 09 program.  It is based on
 the Gaussian(R) 03 system (copyright 2003, Gaussian, Inc.),
 the Gaussian(R) 98 system (copyright 1998, Gaussian, Inc.),
 the Gaussian(R) 94 system (copyright 1995, Gaussian, Inc.),
 the Gaussian 92(TM) system (copyright 1992, Gaussian, Inc.),
 the Gaussian 90(TM) system (copyright 1990, Gaussian, Inc.),
 the Gaussian 88(TM) system (copyright 1988, Gaussian, Inc.),
 the Gaussian 86(TM) system (copyright 1986, Carnegie Mellon
 University), and the Gaussian 82(TM) system (copyright 1983,
 Carnegie Mellon University). Gaussian is a federally registered
 trademark of Gaussian, Inc.
  
 This software contains proprietary and confidential information,
 including trade secrets, belonging to Gaussian, Inc.
  
 This software is provided under written license and may be
 used, copied, transmitted, or stored only in accord with that
 written license.
  
 The following legend is applicable only to US Government
 contracts under FAR:
  
                    RESTRICTED RIGHTS LEGEND
  
 Use, reproduction and disclosure by the US Government is
 subject to restrictions as set forth in subparagraphs (a)
 and (c) of the Commercial Computer Software - Restricted
 Rights clause in FAR 52.227-19.
  
 Gaussian, Inc.
 340 Quinnipiac St., Bldg. 40, Wallingford CT 06492
  
  
 ---------------------------------------------------------------
 Warning -- This program may not be used in any manner that
 competes with the business of Gaussian, Inc. or will provide
 assistance to any competitor of Gaussian, Inc.  The licensee
 of this program is prohibited from giving any competitor of
 Gaussian, Inc. access to this program.  By using this program,
 the user acknowledges that Gaussian, Inc. is engaged in the
 business of creating and licensing software in the field of
 computational chemistry and represents and warrants to the
 licensee that it is not a competitor of Gaussian, Inc. and that
 it will not use this program in any manner prohibited above.
 ---------------------------------------------------------------
  

 Cite this work as:
 Gaussian 09, Revision A.02,
 M. J. Frisch, G. W. Trucks, H. B. Schlegel, G. E. Scuseria, 
 M. A. Robb, J. R. Cheeseman, G. Scalmani, V. Barone, B. Mennucci, 
 G. A. Petersson, H. Nakatsuji, M. Caricato, X. Li, H. P. Hratchian, 
 A. F. Izmaylov, J. Bloino, G. Zheng, J. L. Sonnenberg, M. Hada, 
 M. Ehara, K. Toyota, R. Fukuda, J. Hasegawa, M. Ishida, T. Nakajima, 
 Y. Honda, O. Kitao, H. Nakai, T. Vreven, J. A. Montgomery, Jr., 
 J. E. Peralta, F. Ogliaro, M. Bearpark, J. J. Heyd, E. Brothers, 
 K. N. Kudin, V. N. Staroverov, R. Kobayashi, J. Normand, 
 K. Raghavachari, A. Rendell, J. C. Burant, S. S. Iyengar, J. Tomasi, 
 M. Cossi, N. Rega, J. M. Millam, M. Klene, J. E. Knox, J. B. Cross, 
 V. Bakken, C. Adamo, J. Jaramillo, R. Gomperts, R. E. Stratmann, 
 O. Yazyev, A. J. Austin, R. Cammi, C. Pomelli, J. W. Ochterski, 
 R. L. Martin, K. Morokuma, V. G. Zakrzewski, G. A. Voth, 
 P. Salvador, J. J. Dannenberg, S. Dapprich, A. D. Daniels, 
 O. Farkas, J. B. Foresman, J. V. Ortiz, J. Cioslowski, 
 and D. J. Fox, Gaussian, Inc., Wallingford CT, 2009.
 
 ******************************************
 Gaussian 09:  EM64L-G09RevA.02 11-Jun-2009
                26-May-2021 
 ******************************************
 %chk=c2h6_038.chk
 %mem=100MB
 --------------------------------
 #p b3lyp/6-31+g(d,p) force nosym
 --------------------------------
 1/10=7,30=1,38=1/1,3;
 2/12=2,15=1,17=6,18=5,40=1/2;
 3/5=1,6=6,7=111,11=2,16=1,25=1,30=1,71=1,74=-5/1,2,3;
 4//1;
 5/5=2,38=5/2;
 6/7=2,8=2,9=2,10=2,28=1/1;
 7/29=1,30=1/1,2,3,16;
 1/10=7,30=1/3;
 99//99;
 Leave Link    1 at Wed May 26 19:14:08 2021, MaxMem=   13107200 cpu:       0.0
 (Enter /programs/64bit/g09/g09-gfortran/bin/l101.exe)
 -------------
 c2h6 molecule
 -------------
 Symbolic Z-matrix:
 Charge =  0 Multiplicity = 1
 C1
 C2                   1    d1
 H3                   1    d2       2    a1
 H4                   1    d3       2    a2       3    t1       0
 H5                   1    d4       2    a3       3    t2       0
 H6                   2    d5       1    a4       3    t3       0
 H7                   2    d6       1    a5       6    t4       0
 H8                   2    d7       1    a6       6    t5       0
       Variables:
       Constants:
  d1                    1.43366                  
  a1                  143.10353                  
  t1                  103.76396                  
  d2                    1.09157                  
  a2                   92.31438                  
  t2                 -155.79718                  
  d3                    1.03028                  
  d4                    1.08532                  
  a3                  105.40719                  
  d5                    1.08844                  
  a4                   97.17918                  
  t3                  179.5644                   
  d6                    1.10035                  
  a5                  100.62142                  
  t4                  111.92995                  
  d7                    1.07226                  
  a6                  137.76572                  
  t5                 -119.97995                  
 
 NAtoms=      8 NQM=      8 NQMF=      0 NMic=      0 NMicF=      0 NTot=      8.
                    Isotopes and Nuclear Properties:
 (Nuclear quadrupole moments (NQMom) in fm**2, nuclear magnetic moments (NMagM)
  in nuclear magnetons)

  Atom         1           2           3           4           5           6           7           8
 IAtWgt=          12          12           1           1           1           1           1           1
 AtmWgt=  12.0000000  12.0000000   1.0078250   1.0078250   1.0078250   1.0078250   1.0078250   1.0078250
 NucSpn=           0           0           1           1           1           1           1           1
 AtZEff=   0.0000000   0.0000000   0.0000000   0.0000000   0.0000000   0.0000000   0.0000000   0.0000000
 NQMom=    0.0000000   0.0000000   0.0000000   0.0000000   0.0000000   0.0000000   0.0000000   0.0000000
 NMagM=    0.0000000   0.0000000   2.7928460   2.7928460   2.7928460   2.7928460   2.7928460   2.7928460
 Leave Link  101 at Wed May 26 19:14:08 2021, MaxMem=   13107200 cpu:       0.0
 (Enter /programs/64bit/g09/g09-gfortran/bin/l103.exe)

 GradGradGradGradGradGradGradGradGradGradGradGradGradGradGradGradGradGrad
 Berny optimization.
 Initialization pass.
                       ----------------------------
                       !    Initial Parameters    !
                       ! (Angstroms and Degrees)  !
 ----------------------                            ----------------------
 !      Name          Value   Derivative information (Atomic Units)     !
 ------------------------------------------------------------------------
 !       d1          1.4337   Frozen                                    !
 !       a1        143.1035   Frozen                                    !
 !       t1        103.764    Frozen                                    !
 !       d2          1.0916   Frozen                                    !
 !       a2         92.3144   Frozen                                    !
 !       t2       -155.7972   Frozen                                    !
 !       d3          1.0303   Frozen                                    !
 !       d4          1.0853   Frozen                                    !
 !       a3        105.4072   Frozen                                    !
 !       d5          1.0884   Frozen                                    !
 !       a4         97.1792   Frozen                                    !
 !       t3        179.5644   Frozen                                    !
 !       d6          1.1004   Frozen                                    !
 !       a5        100.6214   Frozen                                    !
 !       t4        111.93     Frozen                                    !
 !       d7          1.0723   Frozen                                    !
 !       a6        137.7657   Frozen                                    !
 !       t5       -119.9799   Frozen                                    !
 ------------------------------------------------------------------------
 Trust Radius=3.00D-01 FncErr=1.00D-07 GrdErr=1.00D-07
 Number of steps in this run=   2 maximum allowed number of steps=   2.
 GradGradGradGradGradGradGradGradGradGradGradGradGradGradGradGradGradGrad

 Leave Link  103 at Wed May 26 19:14:08 2021, MaxMem=   13107200 cpu:       0.0
 (Enter /programs/64bit/g09/g09-gfortran/bin/l202.exe)
                          Input orientation:                          
 ---------------------------------------------------------------------
 Center     Atomic      Atomic             Coordinates (Angstroms)
 Number     Number       Type             X           Y           Z
 ---------------------------------------------------------------------
      1          6           0        0.000000    0.000000    0.000000
      2          6           0        0.000000    0.000000    1.433655
      3          1           0        0.655349    0.000000   -0.872955
      4          1           0       -0.244927   -0.999879   -0.041605
      5          1           0       -0.954344    0.428956   -0.288344
      6          1           0       -1.079872    0.008210    1.569680
      7          1           0        0.396272   -1.006286    1.636471
      8          1           0        0.364883    0.621542    2.227557
 ---------------------------------------------------------------------
                    Distance matrix (angstroms):
                    1          2          3          4          5
     1  C    0.000000
     2  C    1.433655   0.000000
     3  H    1.091574   2.397902   0.000000
     4  H    1.030281   1.798928   1.581581   0.000000
     5  H    1.085319   2.014959   1.765470   1.614225   0.000000
     6  H    1.905279   1.088437   2.996252   2.075962   1.909199
     7  H    1.961551   1.100354   2.716054   1.796418   2.754814
     8  H    2.341253   1.072257   3.175509   2.854816   2.847316
                    6          7          8
     6  H    0.000000
     7  H    1.792391   0.000000
     8  H    1.701851   1.732106   0.000000
 Symmetry turned off by external request.
 Stoichiometry    C2H6
 Framework group  C1[X(C2H6)]
 Deg. of freedom    18
 Full point group                 C1      NOp   1
 Rotational constants (GHZ):     93.2590124     22.2872423     21.5205964
 Leave Link  202 at Wed May 26 19:14:08 2021, MaxMem=   13107200 cpu:       0.0
 (Enter /programs/64bit/g09/g09-gfortran/bin/l301.exe)
 Standard basis: 6-31+G(d,p) (6D, 7F)
 Ernie: Thresh=  0.10000D-02 Tol=  0.10000D-05 Strict=F.
 Integral buffers will be    131072 words long.
 Raffenetti 2 integral format.
 Two-electron integral symmetry is turned off.
    68 basis functions,   106 primitive gaussians,    68 cartesian basis functions
     9 alpha electrons        9 beta electrons
       nuclear repulsion energy        44.0755244198 Hartrees.
 IExCor=  402 DFT=T Ex+Corr=B3LYP ExCW=0 ScaHFX=  0.200000
 ScaDFX=  0.800000  0.720000  1.000000  0.810000 ScalE2=  1.000000  1.000000
 IRadAn=      0 IRanWt=     -1 IRanGd=            0 ICorTp=0
 NAtoms=    8 NActive=    8 NUniq=    8 SFac= 7.50D-01 NAtFMM=   80 NAOKFM=F Big=F
 Leave Link  301 at Wed May 26 19:14:08 2021, MaxMem=   13107200 cpu:       0.0
 (Enter /programs/64bit/g09/g09-gfortran/bin/l302.exe)
 NPDir=0 NMtPBC=     1 NCelOv=     1 NCel=       1 NClECP=     1 NCelD=      1
         NCelK=      1 NCelE2=     1 NClLst=     1 CellRange=     0.0.
 One-electron integrals computed using PRISM.
 NBasis=    68 RedAO= T  NBF=    68
 NBsUse=    68 1.00D-06 NBFU=    68
 Precomputing XC quadrature grid using
 IXCGrd= 2 IRadAn=           0 IRanWt=          -1 IRanGd=           0 AccXCQ= 1.00D-10.
 NRdTot=     510 NPtTot=       65100 NUsed=       68787 NTot=       68819
 NSgBfM=    68    68    68    68    68 NAtAll=     8     8.
 Leave Link  302 at Wed May 26 19:14:08 2021, MaxMem=   13107200 cpu:       0.1
 (Enter /programs/64bit/g09/g09-gfortran/bin/l303.exe)
 DipDrv:  MaxL=1.
 Leave Link  303 at Wed May 26 19:14:08 2021, MaxMem=   13107200 cpu:       0.0
 (Enter /programs/64bit/g09/g09-gfortran/bin/l401.exe)
 Harris functional with IExCor=  402 diagonalized for initial guess.
 ExpMin= 4.38D-02 ExpMax= 3.05D+03 ExpMxC= 4.57D+02 IAcc=2 IRadAn=         0 AccDes= 0.00D+00
 HarFok:  IExCor=  402 AccDes= 0.00D+00 IRadAn=         0 IDoV= 1
 ScaDFX=  1.000000  1.000000  1.000000  1.000000
 FoFCou: FMM=F IPFlag=           0 FMFlag=      100000 FMFlg1=           0
         NFxFlg=           0 DoJE=T BraDBF=F KetDBF=T FulRan=T
         Omega=  0.000000  0.000000  1.000000  0.000000  0.000000 ICntrl=     500 IOpCl=  0
         NMat0=    1 NMatS0=    1 NMatT0=    0 NMatD0=    1 NMtDS0=    0 NMtDT0=    0
         I1Cent=           4 NGrid=           0.
 Symmetry not used in FoFCou.
 Harris En= -79.8468536409386    
 Leave Link  401 at Wed May 26 19:14:09 2021, MaxMem=   13107200 cpu:       0.8
 (Enter /programs/64bit/g09/g09-gfortran/bin/l502.exe)
 Closed shell SCF:
 Requested convergence on RMS density matrix=1.00D-08 within 128 cycles.
 Requested convergence on MAX density matrix=1.00D-06.
 Requested convergence on             energy=1.00D-06.
 No special actions if energy rises.
 Using DIIS extrapolation, IDIIS=  1040.
 Two-electron integral symmetry not used.
        68702 words used for storage of precomputed grid.
 Keep R1 ints in memory in canonical form, NReq=3743087.
 IEnd=      101552 IEndB=      101552 NGot=    13107200 MDV=    10273922
 LenX=    10273922 LenY=    10268857
 Symmetry not used in FoFDir.
 MinBra= 0 MaxBra= 2 Meth= 1.
 IRaf=       0 NMat=   1 IRICut=       1 DoRegI=T DoRafI=F ISym2E= 0 JSym2E=0.

 Cycle   1  Pass 1  IDiag  1:
 E= -79.6129724916184    
 DIIS: error= 4.17D-02 at cycle   1 NSaved=   1.
 NSaved= 1 IEnMin= 1 EnMin= -79.6129724916184     IErMin= 1 ErrMin= 4.17D-02
 ErrMax= 4.17D-02 EMaxC= 1.00D-01 BMatC= 1.44D-01 BMatP= 1.44D-01
 IDIUse=3 WtCom= 5.83D-01 WtEn= 4.17D-01
 Coeff-Com:  0.100D+01
 Coeff-En:   0.100D+01
 Coeff:      0.100D+01
 Gap=     0.239 Goal=   None    Shift=    0.000
 GapD=    0.239 DampG=1.000 DampE=0.500 DampFc=0.5000 IDamp=-1.
 Damping current iteration by 5.00D-01
 RMSDP=1.55D-02 MaxDP=1.92D-01              OVMax= 2.29D-01

 Cycle   2  Pass 1  IDiag  1:
 E= -79.6755960086383     Delta-E=       -0.062623517020 Rises=F Damp=T
 DIIS: error= 9.56D-03 at cycle   2 NSaved=   2.
 NSaved= 2 IEnMin= 2 EnMin= -79.6755960086383     IErMin= 2 ErrMin= 9.56D-03
 ErrMax= 9.56D-03 EMaxC= 1.00D-01 BMatC= 6.09D-03 BMatP= 1.44D-01
 IDIUse=3 WtCom= 9.04D-01 WtEn= 9.56D-02
 Coeff-Com:  0.124D+00 0.876D+00
 Coeff-En:   0.219D+00 0.781D+00
 Coeff:      0.133D+00 0.867D+00
 Gap=     0.315 Goal=   None    Shift=    0.000
 RMSDP=4.00D-03 MaxDP=7.96D-02 DE=-6.26D-02 OVMax= 1.36D-01

 Cycle   3  Pass 1  IDiag  1:
 E= -79.7709680008492     Delta-E=       -0.095371992211 Rises=F Damp=F
 DIIS: error= 2.08D-03 at cycle   3 NSaved=   3.
 NSaved= 3 IEnMin= 3 EnMin= -79.7709680008492     IErMin= 3 ErrMin= 2.08D-03
 ErrMax= 2.08D-03 EMaxC= 1.00D-01 BMatC= 2.65D-04 BMatP= 6.09D-03
 IDIUse=3 WtCom= 9.79D-01 WtEn= 2.08D-02
 Coeff-Com:  0.896D-02 0.143D+00 0.848D+00
 Coeff-En:   0.000D+00 0.000D+00 0.100D+01
 Coeff:      0.877D-02 0.140D+00 0.851D+00
 Gap=     0.322 Goal=   None    Shift=    0.000
 RMSDP=4.85D-04 MaxDP=5.04D-03 DE=-9.54D-02 OVMax= 5.15D-03

 Cycle   4  Pass 1  IDiag  1:
 E= -79.7712063237551     Delta-E=       -0.000238322906 Rises=F Damp=F
 DIIS: error= 4.41D-04 at cycle   4 NSaved=   4.
 NSaved= 4 IEnMin= 4 EnMin= -79.7712063237551     IErMin= 4 ErrMin= 4.41D-04
 ErrMax= 4.41D-04 EMaxC= 1.00D-01 BMatC= 1.28D-05 BMatP= 2.65D-04
 IDIUse=3 WtCom= 9.96D-01 WtEn= 4.41D-03
 Coeff-Com: -0.175D-02-0.564D-02 0.167D+00 0.840D+00
 Coeff-En:   0.000D+00 0.000D+00 0.000D+00 0.100D+01
 Coeff:     -0.174D-02-0.561D-02 0.166D+00 0.841D+00
 Gap=     0.321 Goal=   None    Shift=    0.000
 RMSDP=1.17D-04 MaxDP=1.42D-03 DE=-2.38D-04 OVMax= 1.04D-03

 Cycle   5  Pass 1  IDiag  1:
 E= -79.7712183507020     Delta-E=       -0.000012026947 Rises=F Damp=F
 DIIS: error= 8.43D-05 at cycle   5 NSaved=   5.
 NSaved= 5 IEnMin= 5 EnMin= -79.7712183507020     IErMin= 5 ErrMin= 8.43D-05
 ErrMax= 8.43D-05 EMaxC= 1.00D-01 BMatC= 5.13D-07 BMatP= 1.28D-05
 IDIUse=1 WtCom= 1.00D+00 WtEn= 0.00D+00
 Coeff-Com: -0.290D-03-0.280D-02 0.551D-01 0.305D+00 0.643D+00
 Coeff:     -0.290D-03-0.280D-02 0.551D-01 0.305D+00 0.643D+00
 Gap=     0.322 Goal=   None    Shift=    0.000
 RMSDP=1.49D-05 MaxDP=1.80D-04 DE=-1.20D-05 OVMax= 2.66D-04

 Cycle   6  Pass 1  IDiag  1:
 E= -79.7712188286885     Delta-E=       -0.000000477987 Rises=F Damp=F
 DIIS: error= 2.49D-05 at cycle   6 NSaved=   6.
 NSaved= 6 IEnMin= 6 EnMin= -79.7712188286885     IErMin= 6 ErrMin= 2.49D-05
 ErrMax= 2.49D-05 EMaxC= 1.00D-01 BMatC= 5.40D-08 BMatP= 5.13D-07
 IDIUse=1 WtCom= 1.00D+00 WtEn= 0.00D+00
 Coeff-Com:  0.160D-03-0.711D-03 0.848D-02 0.527D-01 0.267D+00 0.673D+00
 Coeff:      0.160D-03-0.711D-03 0.848D-02 0.527D-01 0.267D+00 0.673D+00
 Gap=     0.322 Goal=   None    Shift=    0.000
 RMSDP=3.38D-06 MaxDP=6.20D-05 DE=-4.78D-07 OVMax= 7.78D-05

 Cycle   7  Pass 1  IDiag  1:
 E= -79.7712188792238     Delta-E=       -0.000000050535 Rises=F Damp=F
 DIIS: error= 4.89D-06 at cycle   7 NSaved=   7.
 NSaved= 7 IEnMin= 7 EnMin= -79.7712188792238     IErMin= 7 ErrMin= 4.89D-06
 ErrMax= 4.89D-06 EMaxC= 1.00D-01 BMatC= 1.91D-09 BMatP= 5.40D-08
 IDIUse=1 WtCom= 1.00D+00 WtEn= 0.00D+00
 Coeff-Com:  0.907D-04-0.973D-04-0.674D-03-0.142D-02 0.538D-01 0.229D+00
 Coeff-Com:  0.719D+00
 Coeff:      0.907D-04-0.973D-04-0.674D-03-0.142D-02 0.538D-01 0.229D+00
 Coeff:      0.719D+00
 Gap=     0.322 Goal=   None    Shift=    0.000
 RMSDP=1.08D-06 MaxDP=1.16D-05 DE=-5.05D-08 OVMax= 1.51D-05

 Cycle   8  Pass 1  IDiag  1:
 E= -79.7712188812015     Delta-E=       -0.000000001978 Rises=F Damp=F
 DIIS: error= 3.83D-07 at cycle   8 NSaved=   8.
 NSaved= 8 IEnMin= 8 EnMin= -79.7712188812015     IErMin= 8 ErrMin= 3.83D-07
 ErrMax= 3.83D-07 EMaxC= 1.00D-01 BMatC= 1.48D-11 BMatP= 1.91D-09
 IDIUse=1 WtCom= 1.00D+00 WtEn= 0.00D+00
 Coeff-Com: -0.970D-06 0.196D-05-0.199D-03-0.916D-03-0.854D-03 0.248D-02
 Coeff-Com:  0.769D-01 0.923D+00
 Coeff:     -0.970D-06 0.196D-05-0.199D-03-0.916D-03-0.854D-03 0.248D-02
 Coeff:      0.769D-01 0.923D+00
 Gap=     0.322 Goal=   None    Shift=    0.000
 RMSDP=1.03D-07 MaxDP=9.80D-07 DE=-1.98D-09 OVMax= 1.63D-06

 Cycle   9  Pass 1  IDiag  1:
 E= -79.7712188812195     Delta-E=       -0.000000000018 Rises=F Damp=F
 DIIS: error= 6.36D-08 at cycle   9 NSaved=   9.
 NSaved= 9 IEnMin= 9 EnMin= -79.7712188812195     IErMin= 9 ErrMin= 6.36D-08
 ErrMax= 6.36D-08 EMaxC= 1.00D-01 BMatC= 3.13D-13 BMatP= 1.48D-11
 IDIUse=1 WtCom= 1.00D+00 WtEn= 0.00D+00
 Coeff-Com: -0.143D-05 0.115D-05-0.385D-04-0.193D-03-0.858D-03-0.184D-02
 Coeff-Com:  0.105D-01 0.214D+00 0.778D+00
 Coeff:     -0.143D-05 0.115D-05-0.385D-04-0.193D-03-0.858D-03-0.184D-02
 Coeff:      0.105D-01 0.214D+00 0.778D+00
 Gap=     0.322 Goal=   None    Shift=    0.000
 RMSDP=2.18D-08 MaxDP=2.92D-07 DE=-1.80D-11 OVMax= 2.34D-07

 Cycle  10  Pass 1  IDiag  1:
 E= -79.7712188812202     Delta-E=       -0.000000000001 Rises=F Damp=F
 DIIS: error= 1.72D-08 at cycle  10 NSaved=  10.
 NSaved=10 IEnMin=10 EnMin= -79.7712188812202     IErMin=10 ErrMin= 1.72D-08
 ErrMax= 1.72D-08 EMaxC= 1.00D-01 BMatC= 1.09D-14 BMatP= 3.13D-13
 IDIUse=1 WtCom= 1.00D+00 WtEn= 0.00D+00
 Coeff-Com: -0.308D-06 0.271D-06-0.317D-05-0.220D-04-0.207D-03-0.576D-03
 Coeff-Com: -0.121D-03 0.180D-01 0.172D+00 0.811D+00
 Coeff:     -0.308D-06 0.271D-06-0.317D-05-0.220D-04-0.207D-03-0.576D-03
 Coeff:     -0.121D-03 0.180D-01 0.172D+00 0.811D+00
 Gap=     0.322 Goal=   None    Shift=    0.000
 RMSDP=3.77D-09 MaxDP=4.45D-08 DE=-7.67D-13 OVMax= 4.85D-08

 SCF Done:  E(RB3LYP) =  -79.7712188812     A.U. after   10 cycles
             Convg  =    0.3774D-08             -V/T =  2.0052
 KE= 7.935960752310D+01 PE=-2.719936779276D+02 EE= 6.878732710340D+01
 Leave Link  502 at Wed May 26 19:14:16 2021, MaxMem=   13107200 cpu:       6.5
 (Enter /programs/64bit/g09/g09-gfortran/bin/l601.exe)
 Copying SCF densities to generalized density rwf, IOpCl= 0 IROHF=0.

 **********************************************************************

            Population analysis using the SCF density.

 **********************************************************************

 Alpha  occ. eigenvalues --  -10.17662 -10.16679  -0.79626  -0.61983  -0.46474
 Alpha  occ. eigenvalues --   -0.45061  -0.38827  -0.32794  -0.30897
 Alpha virt. eigenvalues --    0.01259   0.02844   0.05003   0.05330   0.07457
 Alpha virt. eigenvalues --    0.09089   0.09166   0.14550   0.14981   0.20026
 Alpha virt. eigenvalues --    0.20326   0.23360   0.27369   0.33488   0.34252
 Alpha virt. eigenvalues --    0.60997   0.64609   0.65444   0.67247   0.71813
 Alpha virt. eigenvalues --    0.73768   0.89341   0.90488   0.93387   0.99889
 Alpha virt. eigenvalues --    1.06867   1.11876   1.13490   1.23728   1.32457
 Alpha virt. eigenvalues --    1.40752   1.60991   1.80954   1.88270   2.03694
 Alpha virt. eigenvalues --    2.06169   2.10820   2.13434   2.18730   2.20897
 Alpha virt. eigenvalues --    2.24377   2.34848   2.37599   2.49775   2.58653
 Alpha virt. eigenvalues --    2.74274   2.77069   2.86529   2.90894   2.92991
 Alpha virt. eigenvalues --    3.03259   3.24532   3.30424   3.42721   3.49135
 Alpha virt. eigenvalues --    3.62092   3.72606   4.37719   4.72677
          Condensed to atoms (all electrons):
              1          2          3          4          5          6
     1  C    5.233402   0.131339   0.354252   0.465585   0.446000  -0.097251
     2  C    0.131339   5.194375   0.020912  -0.127208  -0.080208   0.456280
     3  H    0.354252   0.020912   0.546676  -0.047282  -0.027453   0.006138
     4  H    0.465585  -0.127208  -0.047282   0.637173  -0.043147  -0.009995
     5  H    0.446000  -0.080208  -0.027453  -0.043147   0.578296  -0.022963
     6  H   -0.097251   0.456280   0.006138  -0.009995  -0.022963   0.591302
     7  H   -0.115964   0.472785   0.000803  -0.034924   0.008983  -0.026404
     8  H    0.021526   0.349722  -0.002697   0.008704  -0.000270  -0.038004
              7          8
     1  C   -0.115964   0.021526
     2  C    0.472785   0.349722
     3  H    0.000803  -0.002697
     4  H   -0.034924   0.008704
     5  H    0.008983  -0.000270
     6  H   -0.026404  -0.038004
     7  H    0.598987  -0.035575
     8  H   -0.035575   0.552424
 Mulliken atomic charges:
              1
     1  C   -0.438888
     2  C   -0.417996
     3  H    0.148650
     4  H    0.151094
     5  H    0.140762
     6  H    0.140898
     7  H    0.131309
     8  H    0.144171
 Sum of Mulliken atomic charges =  -0.00000
 Mulliken charges with hydrogens summed into heavy atoms:
              1
     1  C    0.001618
     2  C   -0.001618
 Sum of Mulliken charges with hydrogens summed into heavy atoms =  -0.00000
 Electronic spatial extent (au):  <R**2>=            136.7445
 Charge=             -0.0000 electrons
 Dipole moment (field-independent basis, Debye):
    X=             -0.2631    Y=             -0.3788    Z=             -0.0482  Tot=              0.4637
 Quadrupole moment (field-independent basis, Debye-Ang):
   XX=            -15.1822   YY=            -15.4721   ZZ=            -15.3123
   XY=             -0.4397   XZ=             -0.3223   YZ=              0.3466
 Traceless Quadrupole moment (field-independent basis, Debye-Ang):
   XX=              0.1400   YY=             -0.1499   ZZ=              0.0099
   XY=             -0.4397   XZ=             -0.3223   YZ=              0.3466
 Octapole moment (field-independent basis, Debye-Ang**2):
  XXX=              0.9235  YYY=              1.2573  ZZZ=            -33.3477  XYY=              0.8271
  XXY=              0.8256  XXZ=            -10.9322  XZZ=              1.3376  YZZ=              1.7958
  YYZ=            -10.7998  XYZ=             -0.1781
 Hexadecapole moment (field-independent basis, Debye-Ang**3):
 XXXX=            -30.1401 YYYY=            -29.2014 ZZZZ=           -135.0731 XXXY=              0.0913
 XXXZ=              0.1644 YYYX=              0.3143 YYYZ=              0.8329 ZZZX=              2.1183
 ZZZY=              4.9289 XXYY=            -10.2337 XXZZ=            -28.1040 YYZZ=            -28.3172
 XXYZ=              0.5175 YYXZ=              0.8241 ZZXY=              0.0162
 N-N= 4.407552441985D+01 E-N=-2.719936779912D+02  KE= 7.935960752310D+01
 No NMR shielding tensors so no spin-rotation constants.
 Leave Link  601 at Wed May 26 19:14:16 2021, MaxMem=   13107200 cpu:       0.1
 (Enter /programs/64bit/g09/g09-gfortran/bin/l701.exe)
 Compute integral first derivatives.
 ... and contract with generalized density number  0.
 Leave Link  701 at Wed May 26 19:14:16 2021, MaxMem=   13107200 cpu:       0.1
 (Enter /programs/64bit/g09/g09-gfortran/bin/l702.exe)
 L702 exits ... SP integral derivatives will be done elsewhere.
 Leave Link  702 at Wed May 26 19:14:16 2021, MaxMem=   13107200 cpu:       0.0
 (Enter /programs/64bit/g09/g09-gfortran/bin/l703.exe)
 Compute integral first derivatives, UseDBF=F ICtDFT=           0.
 Integral derivatives from FoFDir, PRISM(SPDF).
 Calling FoFJK, ICntrl=      2127 FMM=F ISym2X=0 I1Cent= 0 IOpClX= 0 NMat=1 NMatS=1 NMatT=0.
 FoFCou: FMM=F IPFlag=           0 FMFlag=      100000 FMFlg1=         800
         NFxFlg=           0 DoJE=F BraDBF=F KetDBF=F FulRan=T
         Omega=  0.000000  0.000000  1.000000  0.000000  0.000000 ICntrl=    2127 IOpCl=  0
         NMat0=    1 NMatS0=    1 NMatT0=    0 NMatD0=    1 NMtDS0=    0 NMtDT0=    0
         I1Cent=           0 NGrid=           0.
 Symmetry not used in FoFCou.
 Leave Link  703 at Wed May 26 19:14:17 2021, MaxMem=   13107200 cpu:       1.4
 (Enter /programs/64bit/g09/g09-gfortran/bin/l716.exe)
 Dipole        =-1.03505495D-01-1.49013160D-01-1.89607998D-02
 -------------------------------------------------------------------
 Center     Atomic                   Forces (Hartrees/Bohr)
 Number     Number              X              Y              Z
 -------------------------------------------------------------------
      1        6          -0.026957713    0.018316987   -0.078029880
      2        6           0.006748690   -0.027628539    0.066584849
      3        1           0.025161363    0.023481497    0.015138759
      4        1          -0.019280933   -0.051072529   -0.024486164
      5        1           0.001977625    0.015581583   -0.018599930
      6        1          -0.002379015   -0.009210445    0.020799039
      7        1          -0.003066664    0.004254304    0.024371067
      8        1           0.017796646    0.026277142   -0.005777740
 -------------------------------------------------------------------
 Cartesian Forces:  Max     0.078029880 RMS     0.028985982
 -----------------------------------------------------------------------------------------------
                       Internal Coordinate Forces (Hartree/Bohr or radian)
  Cent   Atom   N1       Length/X         N2         Alpha/Y        N3         Beta/Z          J
 -----------------------------------------------------------------------------------------------
      1  C 
      2  C        1   0.105977(     1)
      3  H        1   0.002999(     2)      2  -0.060256(     8)
      4  H        1   0.055138(     3)      2   0.043374(     9)      3   0.012793(    14)     0
      5  H        1   0.009361(     4)      2   0.034279(    10)      3   0.029704(    15)     0
      6  H        2   0.004890(     5)      1   0.041852(    11)      3   0.013402(    16)     0
      7  H        2  -0.000503(     6)      1   0.051756(    12)      6  -0.002646(    17)     0
      8  H        2   0.017010(     7)      1  -0.055383(    13)      6  -0.002784(    18)     0
 -----------------------------------------------------------------------------------------------
 Internal  Forces:  Max     0.105977215 RMS     0.040897170
 Force constants in Cartesian coordinates: 
                1             2             3             4             5 
      1  0.700634D+00
      2 -0.128329D-01  0.762065D+00
      3 -0.560184D-01 -0.125300D-01  0.869333D+00
      4 -0.138944D+00  0.660663D-02  0.138606D-01  0.702177D+00
      5  0.263157D-02 -0.148361D+00  0.170157D-01 -0.400819D-01  0.681932D+00
      6 -0.727819D-02 -0.768706D-02 -0.404686D+00  0.611015D-01  0.852133D-01
      7 -0.184005D+00  0.471107D-02  0.997555D-01  0.241417D-01  0.796673D-03
      8  0.219525D-01 -0.125300D+00 -0.143779D-01 -0.518704D-02  0.291972D-01
      9  0.121849D+00  0.353672D-02 -0.271425D+00  0.181238D-01  0.598082D-03
     10 -0.100213D+00 -0.945775D-01  0.345821D-02 -0.214896D-02  0.137116D-02
     11 -0.801946D-01 -0.403063D+00 -0.153333D-01  0.812024D-03  0.898677D-03
     12  0.130040D-02 -0.275050D-01 -0.792360D-01 -0.686418D-02 -0.296693D-01
     13 -0.303327D+00  0.964758D-01 -0.610559D-01  0.908148D-02 -0.411100D-03
     14  0.667035D-01 -0.114418D+00  0.252255D-01  0.331871D-02  0.718905D-02
     15 -0.671313D-01  0.364983D-01 -0.113986D+00 -0.251202D-01  0.120554D-01
     16  0.358437D-02 -0.937876D-04  0.000000D+00 -0.344537D+00  0.860846D-03
     17 -0.261722D-02 -0.239238D-02  0.000000D+00 -0.985043D-02 -0.793218D-01
     18  0.286135D-01 -0.600163D-03  0.000000D+00  0.434819D-01 -0.949947D-02
     19  0.620711D-02  0.360534D-02  0.000000D+00 -0.109770D+00  0.676885D-01
     20  0.276257D-03  0.664609D-02  0.000000D+00  0.832953D-01 -0.300002D+00
     21 -0.107571D-01  0.259308D-01  0.000000D+00 -0.295855D-01  0.484875D-01
     22  0.160642D-01 -0.389457D-02  0.000000D+00 -0.140000D+00 -0.328557D-01
     23  0.408091D-02  0.248226D-01  0.000000D+00 -0.389132D-01 -0.191532D+00
     24 -0.105782D-01 -0.176435D-01  0.000000D+00 -0.749980D-01 -0.124201D+00
                6             7             8             9            10 
      6  0.827467D+00
      7  0.000000D+00  0.171163D+00
      8  0.000000D+00 -0.401685D-02  0.829119D-01
      9  0.000000D+00 -0.131490D+00 -0.301555D-02  0.247601D+00
     10  0.000000D+00 -0.265044D-02 -0.235987D-01 -0.198975D-02  0.890874D-01
     11  0.000000D+00  0.402682D-03  0.448370D-02  0.302303D-03  0.830589D-01
     12  0.000000D+00  0.592543D-02  0.311693D-01  0.444837D-02 -0.464152D-02
     13  0.000000D+00 -0.864911D-02  0.843962D-02 -0.649310D-02  0.144344D-01
     14  0.000000D+00 -0.189358D-02  0.951638D-02 -0.142156D-02  0.342467D-01
     15  0.000000D+00  0.258093D-01 -0.137759D-01  0.193757D-01  0.317305D-02
     16  0.338653D-01  0.000000D+00  0.494412D-04  0.000000D+00  0.305708D-04
     17 -0.787644D-02  0.000000D+00  0.650307D-02  0.000000D+00  0.402102D-02
     18 -0.806149D-01  0.000000D+00  0.000000D+00  0.000000D+00  0.000000D+00
     19 -0.236515D-01  0.000000D+00 -0.604204D-02  0.000000D+00 -0.373595D-02
     20  0.406574D-01  0.000000D+00 -0.237934D-02  0.000000D+00 -0.147121D-02
     21 -0.884940D-01  0.000000D+00  0.000000D+00  0.000000D+00  0.000000D+00
     22 -0.640371D-01  0.000000D+00  0.840309D-02  0.000000D+00  0.519585D-02
     23 -0.110307D+00  0.000000D+00 -0.493313D-02  0.000000D+00 -0.305028D-02
     24 -0.253672D+00  0.000000D+00  0.000000D+00  0.000000D+00  0.000000D+00
               11            12            13            14            15 
     11  0.406370D+00
     12  0.158476D-01  0.738423D-01
     13 -0.371389D-02  0.427987D-02  0.289080D+00
     14 -0.881161D-02  0.101573D-01 -0.100998D+00  0.106062D+00
     15 -0.816598D-03  0.945356D-03  0.632692D-01 -0.339613D-01  0.936653D-01
     16 -0.748852D-05  0.000000D+00 -0.126955D-04 -0.282450D-04  0.000000D+00
     17 -0.984975D-03  0.000000D+00 -0.166985D-02 -0.371510D-02  0.000000D+00
     18  0.000000D+00  0.000000D+00  0.000000D+00  0.000000D+00  0.000000D+00
     19  0.915147D-03  0.000000D+00  0.155147D-02  0.345173D-02  0.000000D+00
     20  0.360382D-03  0.000000D+00  0.610964D-03  0.135928D-02  0.000000D+00
     21  0.000000D+00  0.000000D+00  0.000000D+00  0.000000D+00  0.000000D+00
     22 -0.127276D-02  0.000000D+00 -0.215774D-02 -0.480056D-02  0.000000D+00
     23  0.747187D-03  0.000000D+00  0.126673D-02  0.281822D-02  0.000000D+00
     24  0.000000D+00  0.000000D+00  0.000000D+00  0.000000D+00  0.000000D+00
               16            17            18            19            20 
     16  0.345481D+00
     17 -0.106257D-02  0.630053D-01
     18 -0.353286D-01  0.888285D-02  0.689370D-01
     19 -0.800196D-03  0.335819D-01 -0.837947D-02  0.958418D-01
     20 -0.278743D-03  0.117585D-01 -0.292258D-02 -0.894631D-01  0.292612D+00
     21  0.180462D-03 -0.727307D-02  0.187162D-02  0.261965D-01 -0.426102D-01
     22 -0.374610D-02 -0.224028D-01 -0.283873D-01  0.107057D-01  0.703062D-02
     23  0.560545D-03  0.514735D-02  0.413937D-02 -0.137373D-01 -0.103547D-01
     24  0.128289D-02  0.626666D-02  0.980633D-02  0.583448D-02  0.487533D-02
               21            22            23            24 
     21  0.738327D-01
     22  0.139656D-01  0.113939D+00
     23 -0.245350D-01  0.497926D-01  0.173284D+00
     24  0.127896D-01  0.784588D-01  0.130703D+00  0.231076D+00
 Force constants in internal coordinates: 
                1             2             3             4             5 
      1  0.404686D+00
      2  0.000000D+00  0.346314D+00
      3  0.000000D+00  0.000000D+00  0.427375D+00
      4  0.000000D+00  0.000000D+00  0.000000D+00  0.353592D+00
      5  0.000000D+00  0.000000D+00  0.000000D+00  0.000000D+00  0.349939D+00
      6  0.000000D+00  0.000000D+00  0.000000D+00  0.000000D+00  0.000000D+00
      7  0.000000D+00  0.000000D+00  0.000000D+00  0.000000D+00  0.000000D+00
      8  0.000000D+00  0.000000D+00  0.000000D+00  0.000000D+00  0.000000D+00
      9  0.000000D+00  0.000000D+00  0.000000D+00  0.000000D+00  0.000000D+00
     10  0.000000D+00  0.000000D+00  0.000000D+00  0.000000D+00  0.000000D+00
     11  0.000000D+00  0.000000D+00  0.000000D+00  0.000000D+00  0.000000D+00
     12  0.000000D+00  0.000000D+00  0.000000D+00  0.000000D+00  0.000000D+00
     13  0.000000D+00  0.000000D+00  0.000000D+00  0.000000D+00  0.000000D+00
     14  0.000000D+00  0.000000D+00  0.000000D+00  0.000000D+00  0.000000D+00
     15  0.000000D+00  0.000000D+00  0.000000D+00  0.000000D+00  0.000000D+00
     16  0.000000D+00  0.000000D+00  0.000000D+00  0.000000D+00  0.000000D+00
     17  0.000000D+00  0.000000D+00  0.000000D+00  0.000000D+00  0.000000D+00
     18  0.000000D+00  0.000000D+00  0.000000D+00  0.000000D+00  0.000000D+00
                6             7             8             9            10 
      6  0.336431D+00
      7  0.000000D+00  0.369463D+00
      8  0.000000D+00  0.000000D+00  0.308278D+00
      9  0.000000D+00  0.000000D+00  0.297812D-01  0.277718D+00
     10  0.000000D+00  0.000000D+00  0.141625D+00  0.391882D-02  0.310961D+00
     11  0.000000D+00  0.000000D+00  0.000000D+00  0.000000D+00  0.000000D+00
     12  0.000000D+00  0.000000D+00  0.000000D+00  0.000000D+00  0.000000D+00
     13  0.000000D+00  0.000000D+00  0.000000D+00  0.000000D+00  0.000000D+00
     14  0.000000D+00  0.000000D+00 -0.133982D-01 -0.313815D-01  0.135589D-01
     15  0.000000D+00  0.000000D+00  0.268925D-01 -0.424539D-01  0.211909D-01
     16  0.000000D+00  0.000000D+00  0.000000D+00  0.000000D+00  0.000000D+00
     17  0.000000D+00  0.000000D+00  0.000000D+00  0.000000D+00  0.000000D+00
     18  0.000000D+00  0.000000D+00  0.000000D+00  0.000000D+00  0.000000D+00
               11            12            13            14            15 
     11  0.272784D+00
     12  0.820872D-02  0.279305D+00
     13  0.612843D-01  0.815674D-01  0.259340D+00
     14  0.000000D+00  0.000000D+00  0.000000D+00  0.259837D+00
     15  0.000000D+00  0.000000D+00  0.000000D+00 -0.147556D+00  0.239611D+00
     16  0.102524D-02 -0.121604D-02 -0.277718D-03  0.493069D-01  0.493069D-01
     17 -0.375708D-01  0.378842D-01  0.444518D-01  0.164356D-01  0.164356D-01
     18  0.750386D-01 -0.704940D-01 -0.611901D-02  0.164356D-01  0.164356D-01
               16            17            18 
     16  0.151728D+00
     17  0.541576D-01  0.255869D+00
     18  0.444525D-01 -0.534544D-01  0.158920D+00
 Leave Link  716 at Wed May 26 19:14:17 2021, MaxMem=   13107200 cpu:       0.0
 (Enter /programs/64bit/g09/g09-gfortran/bin/l103.exe)

 GradGradGradGradGradGradGradGradGradGradGradGradGradGradGradGradGradGrad
 Berny optimization.
 Search for a local minimum.
 Step number   1 out of a maximum of    2
 All quantities printed in internal units (Hartrees-Bohrs-Radians)
 Second derivative matrix not updated -- first step.
 The second derivative matrix:
                          d1        a1        t1        d2        a2
           d1           0.40469
           a1           0.00000   0.30828
           t1          -0.00000  -0.01340   0.25984
           d2           0.00000   0.00000   0.00000   0.34631
           a2           0.00000   0.02978  -0.03138  -0.00000   0.27772
           t2          -0.00000   0.02689  -0.14756   0.00000  -0.04245
           d3          -0.00000   0.00000   0.00000   0.00000   0.00000
           d4          -0.00000   0.00000   0.00000  -0.00000   0.00000
           a3           0.00000   0.14163   0.01356  -0.00000   0.00392
           d5           0.00000   0.00000  -0.00000   0.00000   0.00000
           a4           0.00000   0.00000   0.00000   0.00000  -0.00000
           t3           0.00000   0.00000   0.04931   0.00000  -0.00000
           d6           0.00000   0.00000  -0.00000   0.00000  -0.00000
           a5           0.00000   0.00000   0.00000   0.00000   0.00000
           t4           0.00000   0.00000   0.01644   0.00000   0.00000
           d7           0.00000   0.00000  -0.00000   0.00000   0.00000
           a6           0.00000   0.00000   0.00000   0.00000  -0.00000
           t5          -0.00000   0.00000   0.01644   0.00000  -0.00000
                          t2        d3        d4        a3        d5
           t2           0.23961
           d3          -0.00000   0.42737
           d4          -0.00000  -0.00000   0.35359
           a3           0.02119   0.00000  -0.00000   0.31096
           d5          -0.00000  -0.00000  -0.00000   0.00000   0.34994
           a4           0.00000   0.00000   0.00000  -0.00000  -0.00000
           t3           0.04931  -0.00000   0.00000  -0.00000   0.00000
           d6          -0.00000   0.00000  -0.00000   0.00000  -0.00000
           a5           0.00000  -0.00000   0.00000  -0.00000  -0.00000
           t4           0.01644  -0.00000  -0.00000   0.00000   0.00000
           d7           0.00000  -0.00000  -0.00000   0.00000   0.00000
           a6          -0.00000   0.00000   0.00000  -0.00000  -0.00000
           t5           0.01644  -0.00000   0.00000  -0.00000  -0.00000
                          a4        t3        d6        a5        t4
           a4           0.27278
           t3           0.00103   0.15173
           d6          -0.00000   0.00000   0.33643
           a5           0.00821  -0.00122   0.00000   0.27931
           t4          -0.03757   0.05416   0.00000   0.03788   0.25587
           d7          -0.00000  -0.00000  -0.00000   0.00000   0.00000
           a6           0.06128  -0.00028  -0.00000   0.08157   0.04445
           t5           0.07504   0.04445   0.00000  -0.07049  -0.05345
                          d7        a6        t5
           d7           0.36946
           a6           0.00000   0.25934
           t5          -0.00000  -0.00612   0.15892
     Eigenvalues --- 1000.000001000.000001000.000001000.000001000.00000
     Eigenvalues --- 1000.000001000.000001000.000001000.000001000.00000
     Eigenvalues --- 1000.000001000.000001000.000001000.000001000.00000
     Eigenvalues --- 1000.000001000.000001000.00000
 Angle between quadratic step and forces=  90.00 degrees.
 Linear search not attempted -- first point.
 Variable       Old X    -DE/DX   Delta X   Delta X   Delta X     New X
                                 (Linear)    (Quad)   (Total)
    d1        2.70922   0.10598   0.00000   0.00000   0.00000   2.70922
    a1        2.49763  -0.06026   0.00000   0.00000   0.00000   2.49763
    t1        1.81102   0.01279   0.00000   0.00000   0.00000   1.81102
    d2        2.06278   0.00300   0.00000   0.00000   0.00000   2.06278
    a2        1.61119   0.04337   0.00000   0.00000   0.00000   1.61119
    t2       -2.71917   0.02970   0.00000   0.00000   0.00000  -2.71917
    d3        1.94695   0.05514   0.00000   0.00000   0.00000   1.94695
    d4        2.05096   0.00936   0.00000   0.00000   0.00000   2.05096
    a3        1.83970   0.03428   0.00000   0.00000   0.00000   1.83970
    d5        2.05685   0.00489   0.00000   0.00000   0.00000   2.05685
    a4        1.69610   0.04185   0.00000   0.00000   0.00000   1.69610
    t3        3.13399   0.01340   0.00000   0.00000   0.00000   3.13399
    d6        2.07937  -0.00050   0.00000   0.00000   0.00000   2.07937
    a5        1.75618   0.05176   0.00000   0.00000   0.00000   1.75618
    t4        1.95355  -0.00265   0.00000   0.00000   0.00000   1.95355
    d7        2.02627   0.01701   0.00000   0.00000   0.00000   2.02627
    a6        2.40447  -0.05538   0.00000   0.00000   0.00000   2.40447
    t5       -2.09405  -0.00278   0.00000   0.00000   0.00000  -2.09405
         Item               Value     Threshold  Converged?
 Maximum Force            0.000000     0.000450     YES
 RMS     Force            0.000000     0.000300     YES
 Maximum Displacement     0.000000     0.001800     YES
 RMS     Displacement     0.000000     0.001200     YES
 Predicted change in Energy=-0.000000D+00
 Optimization completed.
    -- Stationary point found.
                       ----------------------------
                       !   Optimized Parameters   !
                       ! (Angstroms and Degrees)  !
 ----------------------                            ----------------------
 !      Name          Value   Derivative information (Atomic Units)     !
 ------------------------------------------------------------------------
 !       d1          1.4337   -DE/DX =    0.106                         !
 !       a1        143.1035   -DE/DX =   -0.0603                        !
 !       t1        103.764    -DE/DX =    0.0128                        !
 !       d2          1.0916   -DE/DX =    0.003                         !
 !       a2         92.3144   -DE/DX =    0.0434                        !
 !       t2       -155.7972   -DE/DX =    0.0297                        !
 !       d3          1.0303   -DE/DX =    0.0551                        !
 !       d4          1.0853   -DE/DX =    0.0094                        !
 !       a3        105.4072   -DE/DX =    0.0343                        !
 !       d5          1.0884   -DE/DX =    0.0049                        !
 !       a4         97.1792   -DE/DX =    0.0419                        !
 !       t3        179.5644   -DE/DX =    0.0134                        !
 !       d6          1.1004   -DE/DX =   -0.0005                        !
 !       a5        100.6214   -DE/DX =    0.0518                        !
 !       t4        111.93     -DE/DX =   -0.0026                        !
 !       d7          1.0723   -DE/DX =    0.017                         !
 !       a6        137.7657   -DE/DX =   -0.0554                        !
 !       t5       -119.9799   -DE/DX =   -0.0028                        !
 ------------------------------------------------------------------------
 GradGradGradGradGradGradGradGradGradGradGradGradGradGradGradGradGradGrad

 Leave Link  103 at Wed May 26 19:14:17 2021, MaxMem=   13107200 cpu:       0.0
 (Enter /programs/64bit/g09/g09-gfortran/bin/l9999.exe)
 1\1\GINC-MOLMOD\Force\RB3LYP\6-31+G(d,p)\C2H6\OSPITE\26-May-2021\1\\#p
  b3lyp/6-31+g(d,p) force nosym\\c2h6 molecule\\0,1\C\C,1,d1\H,1,d2,2,a
 1\H,1,d3,2,a2,3,t1,0\H,1,d4,2,a3,3,t2,0\H,2,d5,1,a4,3,t3,0\H,2,d6,1,a5
 ,6,t4,0\H,2,d7,1,a6,6,t5,0\\d1=1.43365514\a1=143.10353065\t1=103.76395
 754\d2=1.09157361\a2=92.31438439\t2=-155.79717847\d3=1.03028092\d4=1.0
 8531932\a3=105.40718851\d5=1.08843662\a4=97.17918243\t3=179.56440316\d
 6=1.10035353\a5=100.62142082\t4=111.92995299\d7=1.07225664\a6=137.7657
 2478\t5=-119.97994892\\Version=EM64L-G09RevA.02\HF=-79.7712189\RMSD=3.
 774e-09\RMSF=2.899e-02\Dipole=-0.1035055,-0.1490132,-0.0189608\Quadrup
 ole=0.1040716,-0.111414,0.0073423,-0.3269332,-0.2396593,0.2576575\PG=C
 01 [X(C2H6)]\\@


 You never know when you're making a memory.
                        -- Rickie Lee Jones
 Job cpu time:  0 days  0 hours  0 minutes  9.2 seconds.
 File lengths (MBytes):  RWF=      5 Int=      0 D2E=      0 Chk=      1 Scr=      1
 Normal termination of Gaussian 09 at Wed May 26 19:14:17 2021.
