 Entering Gaussian System, Link 0=g09
 Input=c2h6_025.com
 Output=c2h6_025.log
 Initial command:
 /programs/64bit/g09/g09-gfortran/bin/l1.exe /data/scratch/Gau-6477.inp -scrdir=/data/scratch/
 Entering Link 1 = /programs/64bit/g09/g09-gfortran/bin/l1.exe PID=      6478.
  
 Copyright (c) 1988,1990,1992,1993,1995,1998,2003,2009, Gaussian, Inc.
                  All Rights Reserved.
  
 This is part of the Gaussian(R) 09 program.  It is based on
 the Gaussian(R) 03 system (copyright 2003, Gaussian, Inc.),
 the Gaussian(R) 98 system (copyright 1998, Gaussian, Inc.),
 the Gaussian(R) 94 system (copyright 1995, Gaussian, Inc.),
 the Gaussian 92(TM) system (copyright 1992, Gaussian, Inc.),
 the Gaussian 90(TM) system (copyright 1990, Gaussian, Inc.),
 the Gaussian 88(TM) system (copyright 1988, Gaussian, Inc.),
 the Gaussian 86(TM) system (copyright 1986, Carnegie Mellon
 University), and the Gaussian 82(TM) system (copyright 1983,
 Carnegie Mellon University). Gaussian is a federally registered
 trademark of Gaussian, Inc.
  
 This software contains proprietary and confidential information,
 including trade secrets, belonging to Gaussian, Inc.
  
 This software is provided under written license and may be
 used, copied, transmitted, or stored only in accord with that
 written license.
  
 The following legend is applicable only to US Government
 contracts under FAR:
  
                    RESTRICTED RIGHTS LEGEND
  
 Use, reproduction and disclosure by the US Government is
 subject to restrictions as set forth in subparagraphs (a)
 and (c) of the Commercial Computer Software - Restricted
 Rights clause in FAR 52.227-19.
  
 Gaussian, Inc.
 340 Quinnipiac St., Bldg. 40, Wallingford CT 06492
  
  
 ---------------------------------------------------------------
 Warning -- This program may not be used in any manner that
 competes with the business of Gaussian, Inc. or will provide
 assistance to any competitor of Gaussian, Inc.  The licensee
 of this program is prohibited from giving any competitor of
 Gaussian, Inc. access to this program.  By using this program,
 the user acknowledges that Gaussian, Inc. is engaged in the
 business of creating and licensing software in the field of
 computational chemistry and represents and warrants to the
 licensee that it is not a competitor of Gaussian, Inc. and that
 it will not use this program in any manner prohibited above.
 ---------------------------------------------------------------
  

 Cite this work as:
 Gaussian 09, Revision A.02,
 M. J. Frisch, G. W. Trucks, H. B. Schlegel, G. E. Scuseria, 
 M. A. Robb, J. R. Cheeseman, G. Scalmani, V. Barone, B. Mennucci, 
 G. A. Petersson, H. Nakatsuji, M. Caricato, X. Li, H. P. Hratchian, 
 A. F. Izmaylov, J. Bloino, G. Zheng, J. L. Sonnenberg, M. Hada, 
 M. Ehara, K. Toyota, R. Fukuda, J. Hasegawa, M. Ishida, T. Nakajima, 
 Y. Honda, O. Kitao, H. Nakai, T. Vreven, J. A. Montgomery, Jr., 
 J. E. Peralta, F. Ogliaro, M. Bearpark, J. J. Heyd, E. Brothers, 
 K. N. Kudin, V. N. Staroverov, R. Kobayashi, J. Normand, 
 K. Raghavachari, A. Rendell, J. C. Burant, S. S. Iyengar, J. Tomasi, 
 M. Cossi, N. Rega, J. M. Millam, M. Klene, J. E. Knox, J. B. Cross, 
 V. Bakken, C. Adamo, J. Jaramillo, R. Gomperts, R. E. Stratmann, 
 O. Yazyev, A. J. Austin, R. Cammi, C. Pomelli, J. W. Ochterski, 
 R. L. Martin, K. Morokuma, V. G. Zakrzewski, G. A. Voth, 
 P. Salvador, J. J. Dannenberg, S. Dapprich, A. D. Daniels, 
 O. Farkas, J. B. Foresman, J. V. Ortiz, J. Cioslowski, 
 and D. J. Fox, Gaussian, Inc., Wallingford CT, 2009.
 
 ******************************************
 Gaussian 09:  EM64L-G09RevA.02 11-Jun-2009
                26-May-2021 
 ******************************************
 %chk=c2h6_025.chk
 %mem=100MB
 --------------------------------
 #p b3lyp/6-31+g(d,p) force nosym
 --------------------------------
 1/10=7,30=1,38=1/1,3;
 2/12=2,15=1,17=6,18=5,40=1/2;
 3/5=1,6=6,7=111,11=2,16=1,25=1,30=1,71=1,74=-5/1,2,3;
 4//1;
 5/5=2,38=5/2;
 6/7=2,8=2,9=2,10=2,28=1/1;
 7/29=1,30=1/1,2,3,16;
 1/10=7,30=1/3;
 99//99;
 Leave Link    1 at Wed May 26 19:11:59 2021, MaxMem=   13107200 cpu:       0.0
 (Enter /programs/64bit/g09/g09-gfortran/bin/l101.exe)
 -------------
 c2h6 molecule
 -------------
 Symbolic Z-matrix:
 Charge =  0 Multiplicity = 1
 C1
 C2                   1    d1
 H3                   1    d2       2    a1
 H4                   1    d3       2    a2       3    t1       0
 H5                   1    d4       2    a3       3    t2       0
 H6                   2    d5       1    a4       3    t3       0
 H7                   2    d6       1    a5       6    t4       0
 H8                   2    d7       1    a6       6    t5       0
       Variables:
       Constants:
  d1                    1.73354                  
  a1                  147.83571                  
  t1                   97.09082                  
  d2                    1.10181                  
  a2                   86.60872                  
  t2                 -155.9555                   
  d3                    1.10121                  
  d4                    1.11157                  
  a3                   84.30652                  
  d5                    1.08475                  
  a4                   88.96495                  
  t3                  179.81651                  
  d6                    1.07952                  
  a5                   89.16857                  
  t4                  122.5729                   
  d7                    1.11074                  
  a6                  154.30763                  
  t5                 -120.00053                  
 
 NAtoms=      8 NQM=      8 NQMF=      0 NMic=      0 NMicF=      0 NTot=      8.
                    Isotopes and Nuclear Properties:
 (Nuclear quadrupole moments (NQMom) in fm**2, nuclear magnetic moments (NMagM)
  in nuclear magnetons)

  Atom         1           2           3           4           5           6           7           8
 IAtWgt=          12          12           1           1           1           1           1           1
 AtmWgt=  12.0000000  12.0000000   1.0078250   1.0078250   1.0078250   1.0078250   1.0078250   1.0078250
 NucSpn=           0           0           1           1           1           1           1           1
 AtZEff=   0.0000000   0.0000000   0.0000000   0.0000000   0.0000000   0.0000000   0.0000000   0.0000000
 NQMom=    0.0000000   0.0000000   0.0000000   0.0000000   0.0000000   0.0000000   0.0000000   0.0000000
 NMagM=    0.0000000   0.0000000   2.7928460   2.7928460   2.7928460   2.7928460   2.7928460   2.7928460
 Leave Link  101 at Wed May 26 19:11:59 2021, MaxMem=   13107200 cpu:       0.0
 (Enter /programs/64bit/g09/g09-gfortran/bin/l103.exe)

 GradGradGradGradGradGradGradGradGradGradGradGradGradGradGradGradGradGrad
 Berny optimization.
 Initialization pass.
                       ----------------------------
                       !    Initial Parameters    !
                       ! (Angstroms and Degrees)  !
 ----------------------                            ----------------------
 !      Name          Value   Derivative information (Atomic Units)     !
 ------------------------------------------------------------------------
 !       d1          1.7335   Frozen                                    !
 !       a1        147.8357   Frozen                                    !
 !       t1         97.0908   Frozen                                    !
 !       d2          1.1018   Frozen                                    !
 !       a2         86.6087   Frozen                                    !
 !       t2       -155.9555   Frozen                                    !
 !       d3          1.1012   Frozen                                    !
 !       d4          1.1116   Frozen                                    !
 !       a3         84.3065   Frozen                                    !
 !       d5          1.0847   Frozen                                    !
 !       a4         88.965    Frozen                                    !
 !       t3        179.8165   Frozen                                    !
 !       d6          1.0795   Frozen                                    !
 !       a5         89.1686   Frozen                                    !
 !       t4        122.5729   Frozen                                    !
 !       d7          1.1107   Frozen                                    !
 !       a6        154.3076   Frozen                                    !
 !       t5       -120.0005   Frozen                                    !
 ------------------------------------------------------------------------
 Trust Radius=3.00D-01 FncErr=1.00D-07 GrdErr=1.00D-07
 Number of steps in this run=   2 maximum allowed number of steps=   2.
 GradGradGradGradGradGradGradGradGradGradGradGradGradGradGradGradGradGrad

 Leave Link  103 at Wed May 26 19:11:59 2021, MaxMem=   13107200 cpu:       0.0
 (Enter /programs/64bit/g09/g09-gfortran/bin/l202.exe)
                          Input orientation:                          
 ---------------------------------------------------------------------
 Center     Atomic      Atomic             Coordinates (Angstroms)
 Number     Number       Type             X           Y           Z
 ---------------------------------------------------------------------
      1          6           0        0.000000    0.000000    0.000000
      2          6           0        0.000000    0.000000    1.733538
      3          1           0        0.586545    0.000000   -0.932706
      4          1           0       -0.135698   -1.090873    0.065141
      5          1           0       -1.010114    0.450672    0.110275
      6          1           0       -1.084563    0.003473    1.713943
      7          1           0        0.578205   -0.911478    1.717873
      8          1           0        0.242113    0.416259    2.734466
 ---------------------------------------------------------------------
                    Distance matrix (angstroms):
                    1          2          3          4          5
     1  C    0.000000
     2  C    1.733538   0.000000
     3  H    1.101805   2.729998   0.000000
     4  H    1.101209   1.997990   1.645399   0.000000
     5  H    1.111574   1.964285   1.959652   1.772851   0.000000
     6  H    2.028272   1.084745   3.130074   2.194649   1.666517
     7  H    2.028843   1.079518   2.802933   1.809244   2.638671
     8  H    2.776544   1.110742   3.706758   3.088606   2.907858
                    6          7          8
     6  H    0.000000
     7  H    1.897880   0.000000
     8  H    1.723928   1.705669   0.000000
 Symmetry turned off by external request.
 Stoichiometry    C2H6
 Framework group  C1[X(C2H6)]
 Deg. of freedom    18
 Full point group                 C1      NOp   1
 Rotational constants (GHZ):     95.1467436     17.2309451     16.3126522
 Leave Link  202 at Wed May 26 19:11:59 2021, MaxMem=   13107200 cpu:       0.0
 (Enter /programs/64bit/g09/g09-gfortran/bin/l301.exe)
 Standard basis: 6-31+G(d,p) (6D, 7F)
 Ernie: Thresh=  0.10000D-02 Tol=  0.10000D-05 Strict=F.
 Integral buffers will be    131072 words long.
 Raffenetti 2 integral format.
 Two-electron integral symmetry is turned off.
    68 basis functions,   106 primitive gaussians,    68 cartesian basis functions
     9 alpha electrons        9 beta electrons
       nuclear repulsion energy        40.6715584741 Hartrees.
 IExCor=  402 DFT=T Ex+Corr=B3LYP ExCW=0 ScaHFX=  0.200000
 ScaDFX=  0.800000  0.720000  1.000000  0.810000 ScalE2=  1.000000  1.000000
 IRadAn=      0 IRanWt=     -1 IRanGd=            0 ICorTp=0
 NAtoms=    8 NActive=    8 NUniq=    8 SFac= 7.50D-01 NAtFMM=   80 NAOKFM=F Big=F
 Leave Link  301 at Wed May 26 19:11:59 2021, MaxMem=   13107200 cpu:       0.0
 (Enter /programs/64bit/g09/g09-gfortran/bin/l302.exe)
 NPDir=0 NMtPBC=     1 NCelOv=     1 NCel=       1 NClECP=     1 NCelD=      1
         NCelK=      1 NCelE2=     1 NClLst=     1 CellRange=     0.0.
 One-electron integrals computed using PRISM.
 NBasis=    68 RedAO= T  NBF=    68
 NBsUse=    68 1.00D-06 NBFU=    68
 Precomputing XC quadrature grid using
 IXCGrd= 2 IRadAn=           0 IRanWt=          -1 IRanGd=           0 AccXCQ= 1.00D-10.
 NRdTot=     510 NPtTot=       65100 NUsed=       68787 NTot=       68819
 NSgBfM=    68    68    68    68    68 NAtAll=     8     8.
 Leave Link  302 at Wed May 26 19:11:59 2021, MaxMem=   13107200 cpu:       0.1
 (Enter /programs/64bit/g09/g09-gfortran/bin/l303.exe)
 DipDrv:  MaxL=1.
 Leave Link  303 at Wed May 26 19:12:00 2021, MaxMem=   13107200 cpu:       0.0
 (Enter /programs/64bit/g09/g09-gfortran/bin/l401.exe)
 Harris functional with IExCor=  402 diagonalized for initial guess.
 ExpMin= 4.38D-02 ExpMax= 3.05D+03 ExpMxC= 4.57D+02 IAcc=2 IRadAn=         0 AccDes= 0.00D+00
 HarFok:  IExCor=  402 AccDes= 0.00D+00 IRadAn=         0 IDoV= 1
 ScaDFX=  1.000000  1.000000  1.000000  1.000000
 FoFCou: FMM=F IPFlag=           0 FMFlag=      100000 FMFlg1=           0
         NFxFlg=           0 DoJE=T BraDBF=F KetDBF=T FulRan=T
         Omega=  0.000000  0.000000  1.000000  0.000000  0.000000 ICntrl=     500 IOpCl=  0
         NMat0=    1 NMatS0=    1 NMatT0=    0 NMatD0=    1 NMtDS0=    0 NMtDT0=    0
         I1Cent=           4 NGrid=           0.
 Symmetry not used in FoFCou.
 Harris En= -79.7613771814685    
 Leave Link  401 at Wed May 26 19:12:00 2021, MaxMem=   13107200 cpu:       0.7
 (Enter /programs/64bit/g09/g09-gfortran/bin/l502.exe)
 Closed shell SCF:
 Requested convergence on RMS density matrix=1.00D-08 within 128 cycles.
 Requested convergence on MAX density matrix=1.00D-06.
 Requested convergence on             energy=1.00D-06.
 No special actions if energy rises.
 Using DIIS extrapolation, IDIIS=  1040.
 Two-electron integral symmetry not used.
        68702 words used for storage of precomputed grid.
 Keep R1 ints in memory in canonical form, NReq=3743087.
 IEnd=      101552 IEndB=      101552 NGot=    13107200 MDV=    10273922
 LenX=    10273922 LenY=    10268857
 Symmetry not used in FoFDir.
 MinBra= 0 MaxBra= 2 Meth= 1.
 IRaf=       0 NMat=   1 IRICut=       1 DoRegI=T DoRafI=F ISym2E= 0 JSym2E=0.

 Cycle   1  Pass 1  IDiag  1:
 E= -79.6132593003468    
 DIIS: error= 3.49D-02 at cycle   1 NSaved=   1.
 NSaved= 1 IEnMin= 1 EnMin= -79.6132593003468     IErMin= 1 ErrMin= 3.49D-02
 ErrMax= 3.49D-02 EMaxC= 1.00D-01 BMatC= 9.05D-02 BMatP= 9.05D-02
 IDIUse=3 WtCom= 6.51D-01 WtEn= 3.49D-01
 Coeff-Com:  0.100D+01
 Coeff-En:   0.100D+01
 Coeff:      0.100D+01
 Gap=     0.313 Goal=   None    Shift=    0.000
 GapD=    0.313 DampG=1.000 DampE=0.500 DampFc=0.5000 IDamp=-1.
 Damping current iteration by 5.00D-01
 RMSDP=1.08D-02 MaxDP=1.30D-01              OVMax= 2.09D-01

 Cycle   2  Pass 1  IDiag  1:
 E= -79.6570726092517     Delta-E=       -0.043813308905 Rises=F Damp=T
 DIIS: error= 9.16D-03 at cycle   2 NSaved=   2.
 NSaved= 2 IEnMin= 2 EnMin= -79.6570726092517     IErMin= 2 ErrMin= 9.16D-03
 ErrMax= 9.16D-03 EMaxC= 1.00D-01 BMatC= 4.19D-03 BMatP= 9.05D-02
 IDIUse=3 WtCom= 9.08D-01 WtEn= 9.16D-02
 Coeff-Com:  0.106D+00 0.894D+00
 Coeff-En:   0.177D+00 0.823D+00
 Coeff:      0.112D+00 0.888D+00
 Gap=     0.300 Goal=   None    Shift=    0.000
 RMSDP=1.93D-03 MaxDP=2.65D-02 DE=-4.38D-02 OVMax= 1.19D-01

 Cycle   3  Pass 1  IDiag  1:
 E= -79.7179876298651     Delta-E=       -0.060915020613 Rises=F Damp=F
 DIIS: error= 1.89D-03 at cycle   3 NSaved=   3.
 NSaved= 3 IEnMin= 3 EnMin= -79.7179876298651     IErMin= 3 ErrMin= 1.89D-03
 ErrMax= 1.89D-03 EMaxC= 1.00D-01 BMatC= 2.76D-04 BMatP= 4.19D-03
 IDIUse=3 WtCom= 9.81D-01 WtEn= 1.89D-02
 Coeff-Com:  0.653D-02 0.168D+00 0.825D+00
 Coeff-En:   0.000D+00 0.000D+00 0.100D+01
 Coeff:      0.640D-02 0.165D+00 0.829D+00
 Gap=     0.291 Goal=   None    Shift=    0.000
 RMSDP=4.32D-04 MaxDP=4.27D-03 DE=-6.09D-02 OVMax= 6.21D-03

 Cycle   4  Pass 1  IDiag  1:
 E= -79.7182552785941     Delta-E=       -0.000267648729 Rises=F Damp=F
 DIIS: error= 4.49D-04 at cycle   4 NSaved=   4.
 NSaved= 4 IEnMin= 4 EnMin= -79.7182552785941     IErMin= 4 ErrMin= 4.49D-04
 ErrMax= 4.49D-04 EMaxC= 1.00D-01 BMatC= 1.50D-05 BMatP= 2.76D-04
 IDIUse=3 WtCom= 9.96D-01 WtEn= 4.49D-03
 Coeff-Com: -0.477D-03 0.172D-03 0.186D+00 0.814D+00
 Coeff-En:   0.000D+00 0.000D+00 0.000D+00 0.100D+01
 Coeff:     -0.475D-03 0.171D-03 0.186D+00 0.815D+00
 Gap=     0.292 Goal=   None    Shift=    0.000
 RMSDP=1.09D-04 MaxDP=1.28D-03 DE=-2.68D-04 OVMax= 1.61D-03

 Cycle   5  Pass 1  IDiag  1:
 E= -79.7182705172849     Delta-E=       -0.000015238691 Rises=F Damp=F
 DIIS: error= 8.38D-05 at cycle   5 NSaved=   5.
 NSaved= 5 IEnMin= 5 EnMin= -79.7182705172849     IErMin= 5 ErrMin= 8.38D-05
 ErrMax= 8.38D-05 EMaxC= 1.00D-01 BMatC= 7.41D-07 BMatP= 1.50D-05
 IDIUse=1 WtCom= 1.00D+00 WtEn= 0.00D+00
 Coeff-Com: -0.100D-03-0.108D-02 0.831D-01 0.389D+00 0.529D+00
 Coeff:     -0.100D-03-0.108D-02 0.831D-01 0.389D+00 0.529D+00
 Gap=     0.291 Goal=   None    Shift=    0.000
 RMSDP=1.66D-05 MaxDP=2.25D-04 DE=-1.52D-05 OVMax= 5.11D-04

 Cycle   6  Pass 1  IDiag  1:
 E= -79.7182712326958     Delta-E=       -0.000000715411 Rises=F Damp=F
 DIIS: error= 3.28D-05 at cycle   6 NSaved=   6.
 NSaved= 6 IEnMin= 6 EnMin= -79.7182712326958     IErMin= 6 ErrMin= 3.28D-05
 ErrMax= 3.28D-05 EMaxC= 1.00D-01 BMatC= 1.09D-07 BMatP= 7.41D-07
 IDIUse=1 WtCom= 1.00D+00 WtEn= 0.00D+00
 Coeff-Com:  0.131D-03-0.752D-03 0.119D-01 0.678D-01 0.287D+00 0.634D+00
 Coeff:      0.131D-03-0.752D-03 0.119D-01 0.678D-01 0.287D+00 0.634D+00
 Gap=     0.291 Goal=   None    Shift=    0.000
 RMSDP=4.70D-06 MaxDP=6.87D-05 DE=-7.15D-07 OVMax= 1.26D-04

 Cycle   7  Pass 1  IDiag  1:
 E= -79.7182713471942     Delta-E=       -0.000000114498 Rises=F Damp=F
 DIIS: error= 3.58D-06 at cycle   7 NSaved=   7.
 NSaved= 7 IEnMin= 7 EnMin= -79.7182713471942     IErMin= 7 ErrMin= 3.58D-06
 ErrMax= 3.58D-06 EMaxC= 1.00D-01 BMatC= 1.90D-09 BMatP= 1.09D-07
 IDIUse=1 WtCom= 1.00D+00 WtEn= 0.00D+00
 Coeff-Com:  0.730D-04-0.210D-03-0.132D-02-0.182D-02 0.606D-01 0.193D+00
 Coeff-Com:  0.750D+00
 Coeff:      0.730D-04-0.210D-03-0.132D-02-0.182D-02 0.606D-01 0.193D+00
 Coeff:      0.750D+00
 Gap=     0.291 Goal=   None    Shift=    0.000
 RMSDP=1.14D-06 MaxDP=1.23D-05 DE=-1.14D-07 OVMax= 1.68D-05

 Cycle   8  Pass 1  IDiag  1:
 E= -79.7182713494708     Delta-E=       -0.000000002277 Rises=F Damp=F
 DIIS: error= 5.80D-07 at cycle   8 NSaved=   8.
 NSaved= 8 IEnMin= 8 EnMin= -79.7182713494708     IErMin= 8 ErrMin= 5.80D-07
 ErrMax= 5.80D-07 EMaxC= 1.00D-01 BMatC= 2.52D-11 BMatP= 1.90D-09
 IDIUse=1 WtCom= 1.00D+00 WtEn= 0.00D+00
 Coeff-Com:  0.122D-04-0.197D-04-0.559D-03-0.205D-02 0.351D-02 0.174D-01
 Coeff-Com:  0.143D+00 0.839D+00
 Coeff:      0.122D-04-0.197D-04-0.559D-03-0.205D-02 0.351D-02 0.174D-01
 Coeff:      0.143D+00 0.839D+00
 Gap=     0.291 Goal=   None    Shift=    0.000
 RMSDP=1.50D-07 MaxDP=1.57D-06 DE=-2.28D-09 OVMax= 2.69D-06

 Cycle   9  Pass 1  IDiag  1:
 E= -79.7182713495026     Delta-E=       -0.000000000032 Rises=F Damp=F
 DIIS: error= 7.04D-08 at cycle   9 NSaved=   9.
 NSaved= 9 IEnMin= 9 EnMin= -79.7182713495026     IErMin= 9 ErrMin= 7.04D-08
 ErrMax= 7.04D-08 EMaxC= 1.00D-01 BMatC= 5.33D-13 BMatP= 2.52D-11
 IDIUse=1 WtCom= 1.00D+00 WtEn= 0.00D+00
 Coeff-Com: -0.398D-06 0.225D-05-0.433D-04-0.183D-03-0.910D-03-0.228D-02
 Coeff-Com:  0.346D-02 0.131D+00 0.868D+00
 Coeff:     -0.398D-06 0.225D-05-0.433D-04-0.183D-03-0.910D-03-0.228D-02
 Coeff:      0.346D-02 0.131D+00 0.868D+00
 Gap=     0.291 Goal=   None    Shift=    0.000
 RMSDP=1.81D-08 MaxDP=1.99D-07 DE=-3.17D-11 OVMax= 3.77D-07

 Cycle  10  Pass 1  IDiag  1:
 E= -79.7182713495032     Delta-E=       -0.000000000001 Rises=F Damp=F
 DIIS: error= 1.10D-08 at cycle  10 NSaved=  10.
 NSaved=10 IEnMin=10 EnMin= -79.7182713495032     IErMin=10 ErrMin= 1.10D-08
 ErrMax= 1.10D-08 EMaxC= 1.00D-01 BMatC= 1.06D-14 BMatP= 5.33D-13
 IDIUse=1 WtCom= 1.00D+00 WtEn= 0.00D+00
 Coeff-Com: -0.392D-06 0.648D-06 0.770D-06 0.252D-05-0.231D-03-0.753D-03
 Coeff-Com: -0.202D-02 0.512D-02 0.134D+00 0.864D+00
 Coeff:     -0.392D-06 0.648D-06 0.770D-06 0.252D-05-0.231D-03-0.753D-03
 Coeff:     -0.202D-02 0.512D-02 0.134D+00 0.864D+00
 Gap=     0.291 Goal=   None    Shift=    0.000
 RMSDP=2.90D-09 MaxDP=3.23D-08 DE=-5.97D-13 OVMax= 4.47D-08

 SCF Done:  E(RB3LYP) =  -79.7182713495     A.U. after   10 cycles
             Convg  =    0.2900D-08             -V/T =  2.0111
 KE= 7.884621744881D+01 PE=-2.647144108490D+02 EE= 6.547836357660D+01
 Leave Link  502 at Wed May 26 19:12:07 2021, MaxMem=   13107200 cpu:       6.6
 (Enter /programs/64bit/g09/g09-gfortran/bin/l601.exe)
 Copying SCF densities to generalized density rwf, IOpCl= 0 IROHF=0.

 **********************************************************************

            Population analysis using the SCF density.

 **********************************************************************

 Alpha  occ. eigenvalues --  -10.20252 -10.19758  -0.75276  -0.62569  -0.47569
 Alpha  occ. eigenvalues --   -0.43369  -0.36807  -0.32449  -0.28848
 Alpha virt. eigenvalues --    0.00301   0.00936   0.04868   0.05773   0.06691
 Alpha virt. eigenvalues --    0.07339   0.08623   0.10389   0.14202   0.15463
 Alpha virt. eigenvalues --    0.19399   0.21097   0.25239   0.28854   0.32367
 Alpha virt. eigenvalues --    0.64232   0.64956   0.65705   0.68626   0.73621
 Alpha virt. eigenvalues --    0.75442   0.87681   0.89182   0.95505   0.96549
 Alpha virt. eigenvalues --    1.02697   1.03578   1.04452   1.18845   1.30246
 Alpha virt. eigenvalues --    1.44338   1.55449   1.70556   1.79522   1.93095
 Alpha virt. eigenvalues --    1.96460   2.04017   2.11026   2.11601   2.15888
 Alpha virt. eigenvalues --    2.18111   2.27526   2.36953   2.40361   2.58396
 Alpha virt. eigenvalues --    2.62649   2.64370   2.64974   2.76050   2.85291
 Alpha virt. eigenvalues --    2.90994   3.21854   3.24464   3.33374   3.40712
 Alpha virt. eigenvalues --    3.49858   3.62157   4.26963   4.65988
          Condensed to atoms (all electrons):
              1          2          3          4          5          6
     1  C    5.251731   0.128680   0.353633   0.433876   0.429325  -0.090597
     2  C    0.128680   5.234328   0.015927  -0.088122  -0.086040   0.442234
     3  H    0.353633   0.015927   0.536447  -0.049265  -0.015025   0.003733
     4  H    0.433876  -0.088122  -0.049265   0.620950  -0.033106  -0.005708
     5  H    0.429325  -0.086040  -0.015025  -0.033106   0.563298  -0.017209
     6  H   -0.090597   0.442234   0.003733  -0.005708  -0.017209   0.593057
     7  H   -0.093348   0.441910   0.002325  -0.025622   0.005964  -0.016189
     8  H    0.033324   0.342669  -0.000820   0.004091   0.000794  -0.042881
              7          8
     1  C   -0.093348   0.033324
     2  C    0.441910   0.342669
     3  H    0.002325  -0.000820
     4  H   -0.025622   0.004091
     5  H    0.005964   0.000794
     6  H   -0.016189  -0.042881
     7  H    0.577713  -0.039023
     8  H   -0.039023   0.551416
 Mulliken atomic charges:
              1
     1  C   -0.446623
     2  C   -0.431585
     3  H    0.153046
     4  H    0.142905
     5  H    0.151998
     6  H    0.133559
     7  H    0.146270
     8  H    0.150431
 Sum of Mulliken atomic charges =   0.00000
 Mulliken charges with hydrogens summed into heavy atoms:
              1
     1  C    0.001326
     2  C   -0.001326
 Sum of Mulliken charges with hydrogens summed into heavy atoms =   0.00000
 Electronic spatial extent (au):  <R**2>=            169.1640
 Charge=              0.0000 electrons
 Dipole moment (field-independent basis, Debye):
    X=             -0.1932    Y=             -0.5047    Z=             -0.0014  Tot=              0.5405
 Quadrupole moment (field-independent basis, Debye-Ang):
   XX=            -15.4620   YY=            -16.3422   ZZ=            -14.9708
   XY=             -1.1287   XZ=             -0.7855   YZ=              0.2368
 Traceless Quadrupole moment (field-independent basis, Debye-Ang):
   XX=              0.1297   YY=             -0.7505   ZZ=              0.6208
   XY=             -1.1287   XZ=             -0.7855   YZ=              0.2368
 Octapole moment (field-independent basis, Debye-Ang**2):
  XXX=              0.9872  YYY=              1.5703  ZZZ=            -39.1042  XYY=              0.8679
  XXY=              0.9669  XXZ=            -13.3189  XZZ=              1.3642  YZZ=              1.6063
  YYZ=            -14.7874  XYZ=             -1.1043
 Hexadecapole moment (field-independent basis, Debye-Ang**3):
 XXXX=            -31.4502 YYYY=            -30.9446 ZZZZ=           -173.1099 XXXY=             -0.1971
 XXXZ=              0.2200 YYYX=              0.1695 YYYZ=              0.7649 ZZZX=              2.4864
 ZZZY=              5.2037 XXYY=            -10.6199 XXZZ=            -36.3403 YYZZ=            -39.2178
 XXYZ=              0.4684 YYXZ=              0.8701 ZZXY=             -1.3169
 N-N= 4.067155847409D+01 E-N=-2.647144104264D+02  KE= 7.884621744881D+01
 No NMR shielding tensors so no spin-rotation constants.
 Leave Link  601 at Wed May 26 19:12:07 2021, MaxMem=   13107200 cpu:       0.1
 (Enter /programs/64bit/g09/g09-gfortran/bin/l701.exe)
 Compute integral first derivatives.
 ... and contract with generalized density number  0.
 Leave Link  701 at Wed May 26 19:12:07 2021, MaxMem=   13107200 cpu:       0.1
 (Enter /programs/64bit/g09/g09-gfortran/bin/l702.exe)
 L702 exits ... SP integral derivatives will be done elsewhere.
 Leave Link  702 at Wed May 26 19:12:07 2021, MaxMem=   13107200 cpu:       0.0
 (Enter /programs/64bit/g09/g09-gfortran/bin/l703.exe)
 Compute integral first derivatives, UseDBF=F ICtDFT=           0.
 Integral derivatives from FoFDir, PRISM(SPDF).
 Calling FoFJK, ICntrl=      2127 FMM=F ISym2X=0 I1Cent= 0 IOpClX= 0 NMat=1 NMatS=1 NMatT=0.
 FoFCou: FMM=F IPFlag=           0 FMFlag=      100000 FMFlg1=         800
         NFxFlg=           0 DoJE=F BraDBF=F KetDBF=F FulRan=T
         Omega=  0.000000  0.000000  1.000000  0.000000  0.000000 ICntrl=    2127 IOpCl=  0
         NMat0=    1 NMatS0=    1 NMatT0=    0 NMatD0=    1 NMtDS0=    0 NMtDT0=    0
         I1Cent=           0 NGrid=           0.
 Symmetry not used in FoFCou.
 Leave Link  703 at Wed May 26 19:12:09 2021, MaxMem=   13107200 cpu:       1.4
 (Enter /programs/64bit/g09/g09-gfortran/bin/l716.exe)
 Dipole        =-7.60177416D-02-1.98576036D-01-5.52918353D-04
 -------------------------------------------------------------------
 Center     Atomic                   Forces (Hartrees/Bohr)
 Number     Number              X              Y              Z
 -------------------------------------------------------------------
      1        6          -0.038362407   -0.013478761    0.035478202
      2        6           0.023189721   -0.014664156   -0.009489610
      3        1           0.012079156    0.034073477    0.014644897
      4        1          -0.012491210    0.005201743   -0.010706873
      5        1           0.014411308   -0.000494458   -0.049234952
      6        1          -0.000746331   -0.023074913    0.017719923
      7        1          -0.015501942   -0.018811372    0.025240593
      8        1           0.017421706    0.031248439   -0.023652179
 -------------------------------------------------------------------
 Cartesian Forces:  Max     0.049234952 RMS     0.022475636
 -----------------------------------------------------------------------------------------------
                       Internal Coordinate Forces (Hartree/Bohr or radian)
  Cent   Atom   N1       Length/X         N2         Alpha/Y        N3         Beta/Z          J
 -----------------------------------------------------------------------------------------------
      1  C 
      2  C        1   0.009819(     1)
      3  H        1  -0.005967(     2)      2  -0.037523(     8)
      4  H        1  -0.004247(     3)      2   0.021796(     9)      3   0.027084(    14)     0
      5  H        1  -0.018181(     4)      2   0.100127(    10)      3   0.011330(    15)     0
      6  H        2   0.000352(     5)      1   0.036343(    11)      3   0.000635(    16)     0
      7  H        2   0.007214(     6)      1   0.051710(    12)      6  -0.047255(    17)     0
      8  H        2  -0.005806(     7)      1  -0.089183(    13)      6   0.000593(    18)     0
 -----------------------------------------------------------------------------------------------
 Internal  Forces:  Max     0.100126692 RMS     0.039100241
 Force constants in Cartesian coordinates: 
                1             2             3             4             5 
      1  0.605718D+00
      2 -0.691959D-01  0.576351D+00
      3 -0.154715D+00 -0.258063D-01  0.600488D+00
      4 -0.913282D-01 -0.468603D-02  0.100746D-01  0.685733D+00
      5 -0.662131D-02 -0.843630D-01  0.131894D-01 -0.981360D-01  0.562777D+00
      6 -0.475423D-02 -0.932040D-02 -0.164882D+00  0.596274D-01  0.102699D+00
      7 -0.167111D+00  0.144469D-01  0.910891D-01  0.215376D-01  0.754107D-03
      8  0.266235D-01 -0.825480D-01 -0.813896D-02 -0.133350D-02  0.962091D-02
      9  0.105474D+00  0.908511D-02 -0.277550D+00  0.135442D-01  0.474230D-03
     10 -0.717447D-01 -0.456780D-01  0.245219D-01  0.312287D-03 -0.181461D-03
     11 -0.313893D-01 -0.329231D+00  0.129414D-01 -0.193404D-03 -0.137418D-02
     12  0.237590D-01  0.962229D-02 -0.676849D-01 -0.258826D-02 -0.233903D-01
     13 -0.289465D+00  0.978191D-01  0.290291D-01 -0.754670D-03  0.264453D-02
     14  0.719319D-01 -0.106830D+00  0.781437D-02  0.345451D-02  0.354730D-02
     15  0.254820D-01  0.709888D-02 -0.903712D-01 -0.210306D-01  0.972665D-02
     16 -0.435553D-03  0.225735D-04  0.000000D+00 -0.354383D+00  0.116143D-02
     17 -0.102589D-02  0.409386D-02  0.000000D+00 -0.152535D-01 -0.816483D-01
     18  0.239257D-01 -0.523761D-03  0.000000D+00  0.355216D-02 -0.159602D-01
     19  0.295870D-02  0.207348D-02  0.000000D+00 -0.155240D+00  0.114014D+00
     20  0.210482D-02  0.970480D-03  0.000000D+00  0.130502D+00 -0.288117D+00
     21 -0.132630D-01  0.200662D-01  0.000000D+00 -0.160933D-01 -0.487778D-02
     22  0.114080D-01  0.519790D-02  0.000000D+00 -0.105876D+00 -0.136350D-01
     23  0.757204D-02  0.215563D-01  0.000000D+00 -0.143540D-01 -0.120443D+00
     24 -0.590848D-02 -0.102220D-01  0.000000D+00 -0.470862D-01 -0.818612D-01
                6             7             8             9            10 
      6  0.609956D+00
      7  0.000000D+00  0.144002D+00
      8  0.000000D+00 -0.982704D-02  0.577675D-01
      9  0.000000D+00 -0.120007D+00 -0.617987D-02  0.259365D+00
     10  0.000000D+00  0.110825D-02 -0.203157D-01  0.696937D-03  0.553420D-01
     11  0.000000D+00  0.190952D-04  0.437966D-02  0.120083D-04  0.335260D-01
     12  0.000000D+00  0.262840D-02  0.310226D-01  0.165290D-02 -0.221459D-01
     13  0.000000D+00  0.463855D-03  0.374064D-02  0.291701D-03  0.143917D-01
     14  0.000000D+00 -0.539304D-02  0.124713D-01 -0.339148D-02  0.330087D-01
     15  0.000000D+00  0.262891D-01 -0.167038D-01  0.165322D-01 -0.307297D-02
     16 -0.503522D-02  0.000000D+00  0.000000D+00  0.000000D+00  0.171680D-05
     17 -0.156189D-01  0.000000D+00  0.000000D+00  0.000000D+00  0.536078D-03
     18 -0.783428D-01  0.000000D+00  0.000000D+00  0.000000D+00  0.000000D+00
     19 -0.111636D-01  0.000000D+00 -0.859027D-03  0.000000D+00 -0.454847D-03
     20 -0.119329D-01  0.000000D+00 -0.544933D-03  0.000000D+00 -0.288537D-03
     21 -0.782456D-01  0.000000D+00  0.000000D+00  0.000000D+00  0.000000D+00
     22 -0.386743D-01  0.000000D+00  0.197110D-02  0.000000D+00  0.104368D-02
     23 -0.658270D-01  0.000000D+00 -0.114647D-02  0.000000D+00 -0.607047D-03
     24 -0.288485D+00  0.000000D+00  0.000000D+00  0.000000D+00  0.000000D+00
               11            12            13            14            15 
     11  0.330518D+00
     12 -0.133776D-01  0.653309D-01
     13 -0.188896D-02 -0.165323D-02  0.275605D+00
     14 -0.433760D-02 -0.387703D-02 -0.102462D+00  0.948201D-01
     15  0.424125D-03  0.701106D-03 -0.276676D-01 -0.545860D-03  0.731378D-01
     16  0.000000D+00  0.000000D+00  0.000000D+00 -0.157019D-05  0.000000D+00
     17 -0.666849D-04  0.000000D+00 -0.218751D-03 -0.490298D-03  0.000000D+00
     18  0.000000D+00  0.000000D+00  0.000000D+00  0.000000D+00  0.000000D+00
     19  0.565802D-04  0.000000D+00  0.185604D-03  0.416004D-03  0.000000D+00
     20  0.358922D-04  0.000000D+00  0.117740D-03  0.263896D-03  0.000000D+00
     21  0.000000D+00  0.000000D+00  0.000000D+00  0.000000D+00  0.000000D+00
     22 -0.129828D-03  0.000000D+00 -0.425883D-03 -0.954553D-03  0.000000D+00
     23  0.755130D-04  0.000000D+00  0.247711D-03  0.555207D-03  0.000000D+00
     24  0.000000D+00  0.000000D+00  0.000000D+00  0.000000D+00  0.000000D+00
               16            17            18            19            20 
     16  0.354173D+00
     17 -0.121956D-02  0.508056D-01
     18  0.516290D-02  0.137102D-01  0.709376D-01
     19  0.900421D-04  0.324990D-01  0.776923D-03  0.140610D+00
     20  0.571490D-04  0.205990D-01  0.488169D-03 -0.139673D+00  0.271732D+00
     21 -0.174105D-05  0.992793D-03  0.272346D-03  0.970682D-02  0.111270D-01
     22  0.554706D-03 -0.153173D-01 -0.334177D-01  0.118500D-01  0.717944D-02
     23 -0.198161D-04  0.670678D-02  0.228564D-02 -0.852714D-02 -0.493997D-02
     24 -0.125936D-03  0.915917D-03  0.713283D-02  0.679829D-03  0.317773D-03
               21            22            23            24 
     21  0.713699D-01
     22  0.196513D-01  0.814459D-01
     23 -0.273082D-01  0.156882D-01  0.976355D-01
     24  0.660331D-02  0.524408D-01  0.908496D-01  0.274749D+00
 Force constants in internal coordinates: 
                1             2             3             4             5 
      1  0.164882D+00
      2  0.000000D+00  0.334833D+00
      3  0.000000D+00  0.000000D+00  0.335488D+00
      4  0.000000D+00  0.000000D+00  0.000000D+00  0.324340D+00
      5  0.000000D+00  0.000000D+00  0.000000D+00  0.000000D+00  0.354270D+00
      6  0.000000D+00  0.000000D+00  0.000000D+00  0.000000D+00  0.000000D+00
      7  0.000000D+00  0.000000D+00  0.000000D+00  0.000000D+00  0.000000D+00
      8  0.000000D+00  0.000000D+00  0.000000D+00  0.000000D+00  0.000000D+00
      9  0.000000D+00  0.000000D+00  0.000000D+00  0.000000D+00  0.000000D+00
     10  0.000000D+00  0.000000D+00  0.000000D+00  0.000000D+00  0.000000D+00
     11  0.000000D+00  0.000000D+00  0.000000D+00  0.000000D+00  0.000000D+00
     12  0.000000D+00  0.000000D+00  0.000000D+00  0.000000D+00  0.000000D+00
     13  0.000000D+00  0.000000D+00  0.000000D+00  0.000000D+00  0.000000D+00
     14  0.000000D+00  0.000000D+00  0.000000D+00  0.000000D+00  0.000000D+00
     15  0.000000D+00  0.000000D+00  0.000000D+00  0.000000D+00  0.000000D+00
     16  0.000000D+00  0.000000D+00  0.000000D+00  0.000000D+00  0.000000D+00
     17  0.000000D+00  0.000000D+00  0.000000D+00  0.000000D+00  0.000000D+00
     18  0.000000D+00  0.000000D+00  0.000000D+00  0.000000D+00  0.000000D+00
                6             7             8             9            10 
      6  0.360526D+00
      7  0.000000D+00  0.325215D+00
      8  0.000000D+00  0.000000D+00  0.297107D+00
      9  0.000000D+00  0.000000D+00  0.134768D-01  0.278807D+00
     10  0.000000D+00  0.000000D+00  0.136497D+00  0.308531D-02  0.311696D+00
     11  0.000000D+00  0.000000D+00  0.000000D+00  0.000000D+00  0.000000D+00
     12  0.000000D+00  0.000000D+00  0.000000D+00  0.000000D+00  0.000000D+00
     13  0.000000D+00  0.000000D+00  0.000000D+00  0.000000D+00  0.000000D+00
     14  0.000000D+00  0.000000D+00  0.560715D-02 -0.880178D-01 -0.136022D-01
     15  0.000000D+00  0.000000D+00  0.243485D-01  0.183627D-01  0.519407D-01
     16  0.000000D+00  0.000000D+00  0.000000D+00  0.000000D+00  0.000000D+00
     17  0.000000D+00  0.000000D+00  0.000000D+00  0.000000D+00  0.000000D+00
     18  0.000000D+00  0.000000D+00  0.000000D+00  0.000000D+00  0.000000D+00
               11            12            13            14            15 
     11  0.297689D+00
     12  0.113918D-02  0.296758D+00
     13  0.708017D-01  0.652260D-01  0.249865D+00
     14  0.000000D+00  0.000000D+00  0.000000D+00  0.221469D+00
     15  0.000000D+00  0.000000D+00  0.000000D+00 -0.157691D+00  0.212254D+00
     16  0.219583D-02 -0.226396D-02 -0.206912D-03  0.690000D-02  0.690000D-02
     17  0.383717D-02  0.589158D-01  0.735035D-02  0.230000D-02  0.230000D-02
     18  0.560376D-01 -0.570285D-01  0.152727D-02  0.230000D-02  0.230000D-02
               16            17            18 
     16  0.422722D-01
     17  0.235719D-01  0.215847D+00
     18 -0.285470D-02 -0.314158D-01  0.595417D-01
 Leave Link  716 at Wed May 26 19:12:09 2021, MaxMem=   13107200 cpu:       0.0
 (Enter /programs/64bit/g09/g09-gfortran/bin/l103.exe)

 GradGradGradGradGradGradGradGradGradGradGradGradGradGradGradGradGradGrad
 Berny optimization.
 Search for a local minimum.
 Step number   1 out of a maximum of    2
 All quantities printed in internal units (Hartrees-Bohrs-Radians)
 Second derivative matrix not updated -- first step.
 The second derivative matrix:
                          d1        a1        t1        d2        a2
           d1           0.16488
           a1           0.00000   0.29711
           t1          -0.00000   0.00561   0.22147
           d2           0.00000  -0.00000  -0.00000   0.33483
           a2          -0.00000   0.01348  -0.08802  -0.00000   0.27881
           t2          -0.00000   0.02435  -0.15769  -0.00000   0.01836
           d3          -0.00000   0.00000  -0.00000   0.00000   0.00000
           d4           0.00000   0.00000   0.00000  -0.00000  -0.00000
           a3           0.00000   0.13650  -0.01360  -0.00000   0.00309
           d5           0.00000   0.00000   0.00000   0.00000   0.00000
           a4           0.00000   0.00000   0.00000   0.00000  -0.00000
           t3           0.00000   0.00000   0.00690   0.00000   0.00000
           d6           0.00000   0.00000   0.00000   0.00000  -0.00000
           a5           0.00000   0.00000   0.00000   0.00000  -0.00000
           t4          -0.00000   0.00000   0.00230   0.00000   0.00000
           d7          -0.00000   0.00000   0.00000   0.00000   0.00000
           a6           0.00000   0.00000  -0.00000   0.00000  -0.00000
           t5           0.00000   0.00000   0.00230   0.00000   0.00000
                          t2        d3        d4        a3        d5
           t2           0.21225
           d3          -0.00000   0.33549
           d4          -0.00000   0.00000   0.32434
           a3           0.05194  -0.00000  -0.00000   0.31170
           d5           0.00000   0.00000  -0.00000  -0.00000   0.35427
           a4           0.00000   0.00000  -0.00000  -0.00000   0.00000
           t3           0.00690   0.00000   0.00000   0.00000  -0.00000
           d6           0.00000  -0.00000  -0.00000  -0.00000   0.00000
           a5           0.00000  -0.00000  -0.00000  -0.00000  -0.00000
           t4           0.00230   0.00000   0.00000   0.00000  -0.00000
           d7           0.00000   0.00000  -0.00000  -0.00000  -0.00000
           a6          -0.00000  -0.00000   0.00000   0.00000   0.00000
           t5           0.00230   0.00000   0.00000   0.00000  -0.00000
                          a4        t3        d6        a5        t4
           a4           0.29769
           t3           0.00220   0.04227
           d6          -0.00000   0.00000   0.36053
           a5           0.00114  -0.00226   0.00000   0.29676
           t4           0.00384   0.02357   0.00000   0.05892   0.21585
           d7           0.00000  -0.00000   0.00000   0.00000   0.00000
           a6           0.07080  -0.00021  -0.00000   0.06523   0.00735
           t5           0.05604  -0.00285  -0.00000  -0.05703  -0.03142
                          d7        a6        t5
           d7           0.32522
           a6           0.00000   0.24986
           t5          -0.00000   0.00153   0.05954
     Eigenvalues --- 1000.000001000.000001000.000001000.000001000.00000
     Eigenvalues --- 1000.000001000.000001000.000001000.000001000.00000
     Eigenvalues --- 1000.000001000.000001000.000001000.000001000.00000
     Eigenvalues --- 1000.000001000.000001000.00000
 Angle between quadratic step and forces=  90.00 degrees.
 Linear search not attempted -- first point.
 Variable       Old X    -DE/DX   Delta X   Delta X   Delta X     New X
                                 (Linear)    (Quad)   (Total)
    d1        3.27591   0.00982   0.00000   0.00000   0.00000   3.27591
    a1        2.58022  -0.03752   0.00000   0.00000   0.00000   2.58022
    t1        1.69455   0.02708   0.00000   0.00000   0.00000   1.69455
    d2        2.08211  -0.00597   0.00000   0.00000   0.00000   2.08211
    a2        1.51161   0.02180   0.00000   0.00000   0.00000   1.51161
    t2       -2.72194   0.01133   0.00000   0.00000   0.00000  -2.72194
    d3        2.08098  -0.00425   0.00000   0.00000   0.00000   2.08098
    d4        2.10057  -0.01818   0.00000   0.00000   0.00000   2.10057
    a3        1.47143   0.10013   0.00000   0.00000   0.00000   1.47143
    d5        2.04987   0.00035   0.00000   0.00000   0.00000   2.04987
    a4        1.55273   0.03634   0.00000   0.00000   0.00000   1.55273
    t3        3.13839   0.00063   0.00000   0.00000   0.00000   3.13839
    d6        2.03999   0.00721   0.00000   0.00000   0.00000   2.03999
    a5        1.55629   0.05171   0.00000   0.00000   0.00000   1.55629
    t4        2.13930  -0.04726   0.00000   0.00000   0.00000   2.13930
    d7        2.09900  -0.00581   0.00000   0.00000   0.00000   2.09900
    a6        2.69318  -0.08918   0.00000   0.00000   0.00000   2.69318
    t5       -2.09440   0.00059   0.00000   0.00000   0.00000  -2.09440
         Item               Value     Threshold  Converged?
 Maximum Force            0.000000     0.000450     YES
 RMS     Force            0.000000     0.000300     YES
 Maximum Displacement     0.000000     0.001800     YES
 RMS     Displacement     0.000000     0.001200     YES
 Predicted change in Energy=-0.000000D+00
 Optimization completed.
    -- Stationary point found.
                       ----------------------------
                       !   Optimized Parameters   !
                       ! (Angstroms and Degrees)  !
 ----------------------                            ----------------------
 !      Name          Value   Derivative information (Atomic Units)     !
 ------------------------------------------------------------------------
 !       d1          1.7335   -DE/DX =    0.0098                        !
 !       a1        147.8357   -DE/DX =   -0.0375                        !
 !       t1         97.0908   -DE/DX =    0.0271                        !
 !       d2          1.1018   -DE/DX =   -0.006                         !
 !       a2         86.6087   -DE/DX =    0.0218                        !
 !       t2       -155.9555   -DE/DX =    0.0113                        !
 !       d3          1.1012   -DE/DX =   -0.0042                        !
 !       d4          1.1116   -DE/DX =   -0.0182                        !
 !       a3         84.3065   -DE/DX =    0.1001                        !
 !       d5          1.0847   -DE/DX =    0.0004                        !
 !       a4         88.965    -DE/DX =    0.0363                        !
 !       t3        179.8165   -DE/DX =    0.0006                        !
 !       d6          1.0795   -DE/DX =    0.0072                        !
 !       a5         89.1686   -DE/DX =    0.0517                        !
 !       t4        122.5729   -DE/DX =   -0.0473                        !
 !       d7          1.1107   -DE/DX =   -0.0058                        !
 !       a6        154.3076   -DE/DX =   -0.0892                        !
 !       t5       -120.0005   -DE/DX =    0.0006                        !
 ------------------------------------------------------------------------
 GradGradGradGradGradGradGradGradGradGradGradGradGradGradGradGradGradGrad

 Leave Link  103 at Wed May 26 19:12:09 2021, MaxMem=   13107200 cpu:       0.0
 (Enter /programs/64bit/g09/g09-gfortran/bin/l9999.exe)
 1\1\GINC-MOLMOD\Force\RB3LYP\6-31+G(d,p)\C2H6\OSPITE\26-May-2021\1\\#p
  b3lyp/6-31+g(d,p) force nosym\\c2h6 molecule\\0,1\C\C,1,d1\H,1,d2,2,a
 1\H,1,d3,2,a2,3,t1,0\H,1,d4,2,a3,3,t2,0\H,2,d5,1,a4,3,t3,0\H,2,d6,1,a5
 ,6,t4,0\H,2,d7,1,a6,6,t5,0\\d1=1.73353782\a1=147.83571311\t1=97.090822
 42\d2=1.10180534\a2=86.60872282\t2=-155.95549645\d3=1.10120897\d4=1.11
 157369\a3=84.30651657\d5=1.08474512\a4=88.96495214\t3=179.81650946\d6=
 1.07951805\a5=89.16857398\t4=122.57289974\d7=1.11074243\a6=154.3076311
 3\t5=-120.00053127\\Version=EM64L-G09RevA.02\HF=-79.7182713\RMSD=2.900
 e-09\RMSF=2.248e-02\Dipole=-0.0760177,-0.198576,-0.0005529\Quadrupole=
 0.0964285,-0.5580056,0.4615771,-0.8391506,-0.5840343,0.1760396\PG=C01 
 [X(C2H6)]\\@


 WHEN YOU'VE SEEN ONE NUCLEAR WAR YOU'VE SEEN THEM ALL.
 Job cpu time:  0 days  0 hours  0 minutes  9.2 seconds.
 File lengths (MBytes):  RWF=      5 Int=      0 D2E=      0 Chk=      1 Scr=      1
 Normal termination of Gaussian 09 at Wed May 26 19:12:09 2021.
