 Entering Gaussian System, Link 0=g09
 Input=c2h6_016.com
 Output=c2h6_016.log
 Initial command:
 /programs/64bit/g09/g09-gfortran/bin/l1.exe /data/scratch/Gau-6248.inp -scrdir=/data/scratch/
 Entering Link 1 = /programs/64bit/g09/g09-gfortran/bin/l1.exe PID=      6249.
  
 Copyright (c) 1988,1990,1992,1993,1995,1998,2003,2009, Gaussian, Inc.
                  All Rights Reserved.
  
 This is part of the Gaussian(R) 09 program.  It is based on
 the Gaussian(R) 03 system (copyright 2003, Gaussian, Inc.),
 the Gaussian(R) 98 system (copyright 1998, Gaussian, Inc.),
 the Gaussian(R) 94 system (copyright 1995, Gaussian, Inc.),
 the Gaussian 92(TM) system (copyright 1992, Gaussian, Inc.),
 the Gaussian 90(TM) system (copyright 1990, Gaussian, Inc.),
 the Gaussian 88(TM) system (copyright 1988, Gaussian, Inc.),
 the Gaussian 86(TM) system (copyright 1986, Carnegie Mellon
 University), and the Gaussian 82(TM) system (copyright 1983,
 Carnegie Mellon University). Gaussian is a federally registered
 trademark of Gaussian, Inc.
  
 This software contains proprietary and confidential information,
 including trade secrets, belonging to Gaussian, Inc.
  
 This software is provided under written license and may be
 used, copied, transmitted, or stored only in accord with that
 written license.
  
 The following legend is applicable only to US Government
 contracts under FAR:
  
                    RESTRICTED RIGHTS LEGEND
  
 Use, reproduction and disclosure by the US Government is
 subject to restrictions as set forth in subparagraphs (a)
 and (c) of the Commercial Computer Software - Restricted
 Rights clause in FAR 52.227-19.
  
 Gaussian, Inc.
 340 Quinnipiac St., Bldg. 40, Wallingford CT 06492
  
  
 ---------------------------------------------------------------
 Warning -- This program may not be used in any manner that
 competes with the business of Gaussian, Inc. or will provide
 assistance to any competitor of Gaussian, Inc.  The licensee
 of this program is prohibited from giving any competitor of
 Gaussian, Inc. access to this program.  By using this program,
 the user acknowledges that Gaussian, Inc. is engaged in the
 business of creating and licensing software in the field of
 computational chemistry and represents and warrants to the
 licensee that it is not a competitor of Gaussian, Inc. and that
 it will not use this program in any manner prohibited above.
 ---------------------------------------------------------------
  

 Cite this work as:
 Gaussian 09, Revision A.02,
 M. J. Frisch, G. W. Trucks, H. B. Schlegel, G. E. Scuseria, 
 M. A. Robb, J. R. Cheeseman, G. Scalmani, V. Barone, B. Mennucci, 
 G. A. Petersson, H. Nakatsuji, M. Caricato, X. Li, H. P. Hratchian, 
 A. F. Izmaylov, J. Bloino, G. Zheng, J. L. Sonnenberg, M. Hada, 
 M. Ehara, K. Toyota, R. Fukuda, J. Hasegawa, M. Ishida, T. Nakajima, 
 Y. Honda, O. Kitao, H. Nakai, T. Vreven, J. A. Montgomery, Jr., 
 J. E. Peralta, F. Ogliaro, M. Bearpark, J. J. Heyd, E. Brothers, 
 K. N. Kudin, V. N. Staroverov, R. Kobayashi, J. Normand, 
 K. Raghavachari, A. Rendell, J. C. Burant, S. S. Iyengar, J. Tomasi, 
 M. Cossi, N. Rega, J. M. Millam, M. Klene, J. E. Knox, J. B. Cross, 
 V. Bakken, C. Adamo, J. Jaramillo, R. Gomperts, R. E. Stratmann, 
 O. Yazyev, A. J. Austin, R. Cammi, C. Pomelli, J. W. Ochterski, 
 R. L. Martin, K. Morokuma, V. G. Zakrzewski, G. A. Voth, 
 P. Salvador, J. J. Dannenberg, S. Dapprich, A. D. Daniels, 
 O. Farkas, J. B. Foresman, J. V. Ortiz, J. Cioslowski, 
 and D. J. Fox, Gaussian, Inc., Wallingford CT, 2009.
 
 ******************************************
 Gaussian 09:  EM64L-G09RevA.02 11-Jun-2009
                26-May-2021 
 ******************************************
 %chk=c2h6_016.chk
 %mem=100MB
 --------------------------------
 #p b3lyp/6-31+g(d,p) force nosym
 --------------------------------
 1/10=7,30=1,38=1/1,3;
 2/12=2,15=1,17=6,18=5,40=1/2;
 3/5=1,6=6,7=111,11=2,16=1,25=1,30=1,71=1,74=-5/1,2,3;
 4//1;
 5/5=2,38=5/2;
 6/7=2,8=2,9=2,10=2,28=1/1;
 7/29=1,30=1/1,2,3,16;
 1/10=7,30=1/3;
 99//99;
 Leave Link    1 at Wed May 26 19:10:27 2021, MaxMem=   13107200 cpu:       0.0
 (Enter /programs/64bit/g09/g09-gfortran/bin/l101.exe)
 -------------
 c2h6 molecule
 -------------
 Symbolic Z-matrix:
 Charge =  0 Multiplicity = 1
 C1
 C2                   1    d1
 H3                   1    d2       2    a1
 H4                   1    d3       2    a2       3    t1       0
 H5                   1    d4       2    a3       3    t2       0
 H6                   2    d5       1    a4       3    t3       0
 H7                   2    d6       1    a5       6    t4       0
 H8                   2    d7       1    a6       6    t5       0
       Variables:
       Constants:
  d1                    1.5                      
  a1                  178.41807                  
  t1                  119.56586                  
  d2                    1.10264                  
  a2                  109.55869                  
  t2                 -178.56344                  
  d3                    1.21548                  
  d4                    1.1616                   
  a3                  108.51898                  
  d5                    1.10669                  
  a4                  108.61182                  
  t3                  179.99689                  
  d6                    1.10802                  
  a5                  108.61327                  
  t4                  120.07371                  
  d7                    1.26009                  
  a6                  178.56542                  
  t5                 -120.                       
 
 NAtoms=      8 NQM=      8 NQMF=      0 NMic=      0 NMicF=      0 NTot=      8.
                    Isotopes and Nuclear Properties:
 (Nuclear quadrupole moments (NQMom) in fm**2, nuclear magnetic moments (NMagM)
  in nuclear magnetons)

  Atom         1           2           3           4           5           6           7           8
 IAtWgt=          12          12           1           1           1           1           1           1
 AtmWgt=  12.0000000  12.0000000   1.0078250   1.0078250   1.0078250   1.0078250   1.0078250   1.0078250
 NucSpn=           0           0           1           1           1           1           1           1
 AtZEff=   0.0000000   0.0000000   0.0000000   0.0000000   0.0000000   0.0000000   0.0000000   0.0000000
 NQMom=    0.0000000   0.0000000   0.0000000   0.0000000   0.0000000   0.0000000   0.0000000   0.0000000
 NMagM=    0.0000000   0.0000000   2.7928460   2.7928460   2.7928460   2.7928460   2.7928460   2.7928460
 Leave Link  101 at Wed May 26 19:10:27 2021, MaxMem=   13107200 cpu:       0.0
 (Enter /programs/64bit/g09/g09-gfortran/bin/l103.exe)

 GradGradGradGradGradGradGradGradGradGradGradGradGradGradGradGradGradGrad
 Berny optimization.
 Initialization pass.
                       ----------------------------
                       !    Initial Parameters    !
                       ! (Angstroms and Degrees)  !
 ----------------------                            ----------------------
 !      Name          Value   Derivative information (Atomic Units)     !
 ------------------------------------------------------------------------
 !       d1          1.5      Frozen                                    !
 !       a1        178.4181   Frozen                                    !
 !       t1        119.5659   Frozen                                    !
 !       d2          1.1026   Frozen                                    !
 !       a2        109.5587   Frozen                                    !
 !       t2       -178.5634   Frozen                                    !
 !       d3          1.2155   Frozen                                    !
 !       d4          1.1616   Frozen                                    !
 !       a3        108.519    Frozen                                    !
 !       d5          1.1067   Frozen                                    !
 !       a4        108.6118   Frozen                                    !
 !       t3        179.9969   Frozen                                    !
 !       d6          1.108    Frozen                                    !
 !       a5        108.6133   Frozen                                    !
 !       t4        120.0737   Frozen                                    !
 !       d7          1.2601   Frozen                                    !
 !       a6        178.5654   Frozen                                    !
 !       t5       -120.0      Frozen                                    !
 ------------------------------------------------------------------------
 Trust Radius=3.00D-01 FncErr=1.00D-07 GrdErr=1.00D-07
 Number of steps in this run=   2 maximum allowed number of steps=   2.
 GradGradGradGradGradGradGradGradGradGradGradGradGradGradGradGradGradGrad

 Leave Link  103 at Wed May 26 19:10:27 2021, MaxMem=   13107200 cpu:       0.0
 (Enter /programs/64bit/g09/g09-gfortran/bin/l202.exe)
                          Input orientation:                          
 ---------------------------------------------------------------------
 Center     Atomic      Atomic             Coordinates (Angstroms)
 Number     Number       Type             X           Y           Z
 ---------------------------------------------------------------------
      1          6           0        0.000000    0.000000    0.000000
      2          6           0        0.000000    0.000000    1.500002
      3          1           0        0.030440    0.000000   -1.102222
      4          1           0       -0.565142   -0.996211   -0.406910
      5          1           0       -1.101104    0.027613   -0.368946
      6          1           0       -1.048809    0.000057    1.853206
      7          1           0        0.526153   -0.908736    1.853659
      8          1           0        0.015775    0.027320    2.759694
 ---------------------------------------------------------------------
                    Distance matrix (angstroms):
                    1          2          3          4          5
     1  C    0.000000
     2  C    1.500002   0.000000
     3  H    1.102642   2.602403   0.000000
     4  H    1.215482   2.224440   1.353001   0.000000
     5  H    1.161599   2.169368   1.348647   1.156249   0.000000
     6  H    2.129407   1.106686   3.146321   2.516865   2.222938
     7  H    2.130420   1.108021   3.131895   2.511722   2.909413
     8  H    2.759874   1.260086   3.862040   3.378232   3.322018
                    6          7          8
     6  H    0.000000
     7  H    1.818353   0.000000
     8  H    1.398500   1.399137   0.000000
 Symmetry turned off by external request.
 Stoichiometry    C2H6
 Framework group  C1[X(C2H6)]
 Deg. of freedom    18
 Full point group                 C1      NOp   1
 Rotational constants (GHZ):    114.2868894     18.1298192     17.4996915
 Leave Link  202 at Wed May 26 19:10:27 2021, MaxMem=   13107200 cpu:       0.0
 (Enter /programs/64bit/g09/g09-gfortran/bin/l301.exe)
 Standard basis: 6-31+G(d,p) (6D, 7F)
 Ernie: Thresh=  0.10000D-02 Tol=  0.10000D-05 Strict=F.
 Integral buffers will be    131072 words long.
 Raffenetti 2 integral format.
 Two-electron integral symmetry is turned off.
    68 basis functions,   106 primitive gaussians,    68 cartesian basis functions
     9 alpha electrons        9 beta electrons
       nuclear repulsion energy        41.3421054697 Hartrees.
 IExCor=  402 DFT=T Ex+Corr=B3LYP ExCW=0 ScaHFX=  0.200000
 ScaDFX=  0.800000  0.720000  1.000000  0.810000 ScalE2=  1.000000  1.000000
 IRadAn=      0 IRanWt=     -1 IRanGd=            0 ICorTp=0
 NAtoms=    8 NActive=    8 NUniq=    8 SFac= 7.50D-01 NAtFMM=   80 NAOKFM=F Big=F
 Leave Link  301 at Wed May 26 19:10:27 2021, MaxMem=   13107200 cpu:       0.0
 (Enter /programs/64bit/g09/g09-gfortran/bin/l302.exe)
 NPDir=0 NMtPBC=     1 NCelOv=     1 NCel=       1 NClECP=     1 NCelD=      1
         NCelK=      1 NCelE2=     1 NClLst=     1 CellRange=     0.0.
 One-electron integrals computed using PRISM.
 NBasis=    68 RedAO= T  NBF=    68
 NBsUse=    68 1.00D-06 NBFU=    68
 Precomputing XC quadrature grid using
 IXCGrd= 2 IRadAn=           0 IRanWt=          -1 IRanGd=           0 AccXCQ= 1.00D-10.
 NRdTot=     510 NPtTot=       65100 NUsed=       68787 NTot=       68819
 NSgBfM=    68    68    68    68    68 NAtAll=     8     8.
 Leave Link  302 at Wed May 26 19:10:28 2021, MaxMem=   13107200 cpu:       0.1
 (Enter /programs/64bit/g09/g09-gfortran/bin/l303.exe)
 DipDrv:  MaxL=1.
 Leave Link  303 at Wed May 26 19:10:28 2021, MaxMem=   13107200 cpu:       0.0
 (Enter /programs/64bit/g09/g09-gfortran/bin/l401.exe)
 Harris functional with IExCor=  402 diagonalized for initial guess.
 ExpMin= 4.38D-02 ExpMax= 3.05D+03 ExpMxC= 4.57D+02 IAcc=2 IRadAn=         0 AccDes= 0.00D+00
 HarFok:  IExCor=  402 AccDes= 0.00D+00 IRadAn=         0 IDoV= 1
 ScaDFX=  1.000000  1.000000  1.000000  1.000000
 FoFCou: FMM=F IPFlag=           0 FMFlag=      100000 FMFlg1=           0
         NFxFlg=           0 DoJE=T BraDBF=F KetDBF=T FulRan=T
         Omega=  0.000000  0.000000  1.000000  0.000000  0.000000 ICntrl=     500 IOpCl=  0
         NMat0=    1 NMatS0=    1 NMatT0=    0 NMatD0=    1 NMtDS0=    0 NMtDT0=    0
         I1Cent=           4 NGrid=           0.
 Symmetry not used in FoFCou.
 Harris En= -79.5942111486780    
 Leave Link  401 at Wed May 26 19:10:28 2021, MaxMem=   13107200 cpu:       0.8
 (Enter /programs/64bit/g09/g09-gfortran/bin/l502.exe)
 Closed shell SCF:
 Requested convergence on RMS density matrix=1.00D-08 within 128 cycles.
 Requested convergence on MAX density matrix=1.00D-06.
 Requested convergence on             energy=1.00D-06.
 No special actions if energy rises.
 Using DIIS extrapolation, IDIIS=  1040.
 Two-electron integral symmetry not used.
        68702 words used for storage of precomputed grid.
 Keep R1 ints in memory in canonical form, NReq=3743087.
 IEnd=      101552 IEndB=      101552 NGot=    13107200 MDV=    10273922
 LenX=    10273922 LenY=    10268857
 Symmetry not used in FoFDir.
 MinBra= 0 MaxBra= 2 Meth= 1.
 IRaf=       0 NMat=   1 IRICut=       1 DoRegI=T DoRafI=F ISym2E= 0 JSym2E=0.

 Cycle   1  Pass 1  IDiag  1:
 E= -79.4166323996298    
 DIIS: error= 3.62D-02 at cycle   1 NSaved=   1.
 NSaved= 1 IEnMin= 1 EnMin= -79.4166323996298     IErMin= 1 ErrMin= 3.62D-02
 ErrMax= 3.62D-02 EMaxC= 1.00D-01 BMatC= 1.17D-01 BMatP= 1.17D-01
 IDIUse=3 WtCom= 6.38D-01 WtEn= 3.62D-01
 Coeff-Com:  0.100D+01
 Coeff-En:   0.100D+01
 Coeff:      0.100D+01
 Gap=     0.163 Goal=   None    Shift=    0.000
 GapD=    0.163 DampG=1.000 DampE=0.500 DampFc=0.5000 IDamp=-1.
 Damping current iteration by 5.00D-01
 RMSDP=4.77D-02 MaxDP=1.13D+00              OVMax= 3.11D-01

 Cycle   2  Pass 1  IDiag  1:
 E= -79.4479358228500     Delta-E=       -0.031303423220 Rises=F Damp=T
 DIIS: error= 1.43D-02 at cycle   2 NSaved=   2.
 NSaved= 2 IEnMin= 2 EnMin= -79.4479358228500     IErMin= 2 ErrMin= 1.43D-02
 ErrMax= 1.43D-02 EMaxC= 1.00D-01 BMatC= 1.55D-02 BMatP= 1.17D-01
 IDIUse=3 WtCom= 8.57D-01 WtEn= 1.43D-01
 Coeff-Com:  0.237D+00 0.763D+00
 Coeff-En:   0.387D+00 0.613D+00
 Coeff:      0.259D+00 0.741D+00
 Gap=     0.198 Goal=   None    Shift=    0.000
 RMSDP=1.87D-02 MaxDP=5.03D-01 DE=-3.13D-02 OVMax= 1.99D-01

 Cycle   3  Pass 1  IDiag  1:
 E= -79.5498767603859     Delta-E=       -0.101940937536 Rises=F Damp=F
 DIIS: error= 3.45D-03 at cycle   3 NSaved=   3.
 NSaved= 3 IEnMin= 3 EnMin= -79.5498767603859     IErMin= 3 ErrMin= 3.45D-03
 ErrMax= 3.45D-03 EMaxC= 1.00D-01 BMatC= 7.13D-04 BMatP= 1.55D-02
 IDIUse=3 WtCom= 9.65D-01 WtEn= 3.45D-02
 Coeff-Com:  0.526D-01 0.191D+00 0.756D+00
 Coeff-En:   0.000D+00 0.000D+00 0.100D+01
 Coeff:      0.508D-01 0.185D+00 0.764D+00
 Gap=     0.195 Goal=   None    Shift=    0.000
 RMSDP=1.35D-03 MaxDP=2.37D-02 DE=-1.02D-01 OVMax= 1.29D-02

 Cycle   4  Pass 1  IDiag  1:
 E= -79.5506245190875     Delta-E=       -0.000747758702 Rises=F Damp=F
 DIIS: error= 8.75D-04 at cycle   4 NSaved=   4.
 NSaved= 4 IEnMin= 4 EnMin= -79.5506245190875     IErMin= 4 ErrMin= 8.75D-04
 ErrMax= 8.75D-04 EMaxC= 1.00D-01 BMatC= 6.27D-05 BMatP= 7.13D-04
 IDIUse=3 WtCom= 9.91D-01 WtEn= 8.75D-03
 Coeff-Com:  0.468D-02 0.411D-02 0.217D+00 0.774D+00
 Coeff-En:   0.000D+00 0.000D+00 0.000D+00 0.100D+01
 Coeff:      0.464D-02 0.408D-02 0.215D+00 0.776D+00
 Gap=     0.194 Goal=   None    Shift=    0.000
 RMSDP=3.32D-04 MaxDP=5.80D-03 DE=-7.48D-04 OVMax= 3.70D-03

 Cycle   5  Pass 1  IDiag  1:
 E= -79.5506888605195     Delta-E=       -0.000064341432 Rises=F Damp=F
 DIIS: error= 4.16D-04 at cycle   5 NSaved=   5.
 NSaved= 5 IEnMin= 5 EnMin= -79.5506888605195     IErMin= 5 ErrMin= 4.16D-04
 ErrMax= 4.16D-04 EMaxC= 1.00D-01 BMatC= 8.78D-06 BMatP= 6.27D-05
 IDIUse=3 WtCom= 9.96D-01 WtEn= 4.16D-03
 Coeff-Com:  0.130D-02-0.475D-02 0.839D-01 0.389D+00 0.530D+00
 Coeff-En:   0.000D+00 0.000D+00 0.000D+00 0.000D+00 0.100D+01
 Coeff:      0.129D-02-0.473D-02 0.836D-01 0.388D+00 0.532D+00
 Gap=     0.195 Goal=   None    Shift=    0.000
 RMSDP=9.39D-05 MaxDP=1.39D-03 DE=-6.43D-05 OVMax= 1.30D-03

 Cycle   6  Pass 1  IDiag  1:
 E= -79.5506977445497     Delta-E=       -0.000008884030 Rises=F Damp=F
 DIIS: error= 9.14D-05 at cycle   6 NSaved=   6.
 NSaved= 6 IEnMin= 6 EnMin= -79.5506977445497     IErMin= 6 ErrMin= 9.14D-05
 ErrMax= 9.14D-05 EMaxC= 1.00D-01 BMatC= 4.76D-07 BMatP= 8.78D-06
 IDIUse=1 WtCom= 1.00D+00 WtEn= 0.00D+00
 Coeff-Com:  0.658D-03-0.231D-02 0.204D-01 0.106D+00 0.231D+00 0.644D+00
 Coeff:      0.658D-03-0.231D-02 0.204D-01 0.106D+00 0.231D+00 0.644D+00
 Gap=     0.195 Goal=   None    Shift=    0.000
 RMSDP=1.79D-05 MaxDP=2.71D-04 DE=-8.88D-06 OVMax= 2.27D-04

 Cycle   7  Pass 1  IDiag  1:
 E= -79.5506982250772     Delta-E=       -0.000000480528 Rises=F Damp=F
 DIIS: error= 1.14D-05 at cycle   7 NSaved=   7.
 NSaved= 7 IEnMin= 7 EnMin= -79.5506982250772     IErMin= 7 ErrMin= 1.14D-05
 ErrMax= 1.14D-05 EMaxC= 1.00D-01 BMatC= 1.40D-08 BMatP= 4.76D-07
 IDIUse=1 WtCom= 1.00D+00 WtEn= 0.00D+00
 Coeff-Com:  0.251D-03-0.453D-03 0.131D-02 0.713D-02 0.273D-01 0.165D+00
 Coeff-Com:  0.800D+00
 Coeff:      0.251D-03-0.453D-03 0.131D-02 0.713D-02 0.273D-01 0.165D+00
 Coeff:      0.800D+00
 Gap=     0.195 Goal=   None    Shift=    0.000
 RMSDP=4.77D-06 MaxDP=8.40D-05 DE=-4.81D-07 OVMax= 5.24D-05

 Cycle   8  Pass 1  IDiag  1:
 E= -79.5506982414366     Delta-E=       -0.000000016359 Rises=F Damp=F
 DIIS: error= 1.70D-06 at cycle   8 NSaved=   8.
 NSaved= 8 IEnMin= 8 EnMin= -79.5506982414366     IErMin= 8 ErrMin= 1.70D-06
 ErrMax= 1.70D-06 EMaxC= 1.00D-01 BMatC= 3.92D-10 BMatP= 1.40D-08
 IDIUse=1 WtCom= 1.00D+00 WtEn= 0.00D+00
 Coeff-Com:  0.564D-04-0.723D-04-0.355D-03-0.180D-02-0.235D-02 0.240D-01
 Coeff-Com:  0.211D+00 0.770D+00
 Coeff:      0.564D-04-0.723D-04-0.355D-03-0.180D-02-0.235D-02 0.240D-01
 Coeff:      0.211D+00 0.770D+00
 Gap=     0.195 Goal=   None    Shift=    0.000
 RMSDP=9.70D-07 MaxDP=1.36D-05 DE=-1.64D-08 OVMax= 9.50D-06

 Cycle   9  Pass 1  IDiag  1:
 E= -79.5506982419298     Delta-E=       -0.000000000493 Rises=F Damp=F
 DIIS: error= 2.92D-07 at cycle   9 NSaved=   9.
 NSaved= 9 IEnMin= 9 EnMin= -79.5506982419298     IErMin= 9 ErrMin= 2.92D-07
 ErrMax= 2.92D-07 EMaxC= 1.00D-01 BMatC= 7.07D-12 BMatP= 3.92D-10
 IDIUse=1 WtCom= 1.00D+00 WtEn= 0.00D+00
 Coeff-Com: -0.207D-05 0.446D-05-0.738D-04-0.447D-03-0.179D-02-0.278D-02
 Coeff-Com: -0.161D-03 0.118D+00 0.887D+00
 Coeff:     -0.207D-05 0.446D-05-0.738D-04-0.447D-03-0.179D-02-0.278D-02
 Coeff:     -0.161D-03 0.118D+00 0.887D+00
 Gap=     0.195 Goal=   None    Shift=    0.000
 RMSDP=3.05D-07 MaxDP=5.28D-06 DE=-4.93D-10 OVMax= 2.45D-06

 Cycle  10  Pass 1  IDiag  1:
 E= -79.5506982419403     Delta-E=       -0.000000000011 Rises=F Damp=F
 DIIS: error= 5.47D-08 at cycle  10 NSaved=  10.
 NSaved=10 IEnMin=10 EnMin= -79.5506982419403     IErMin=10 ErrMin= 5.47D-08
 ErrMax= 5.47D-08 EMaxC= 1.00D-01 BMatC= 2.27D-13 BMatP= 7.07D-12
 IDIUse=1 WtCom= 1.00D+00 WtEn= 0.00D+00
 Coeff-Com: -0.123D-05 0.116D-05-0.221D-05-0.293D-04-0.195D-03-0.569D-03
 Coeff-Com: -0.266D-02-0.923D-02 0.121D+00 0.892D+00
 Coeff:     -0.123D-05 0.116D-05-0.221D-05-0.293D-04-0.195D-03-0.569D-03
 Coeff:     -0.266D-02-0.923D-02 0.121D+00 0.892D+00
 Gap=     0.195 Goal=   None    Shift=    0.000
 RMSDP=2.71D-08 MaxDP=3.86D-07 DE=-1.05D-11 OVMax= 3.07D-07

 Cycle  11  Pass 1  IDiag  1:
 E= -79.5506982419408     Delta-E=       -0.000000000001 Rises=F Damp=F
 DIIS: error= 1.05D-08 at cycle  11 NSaved=  11.
 NSaved=11 IEnMin=11 EnMin= -79.5506982419408     IErMin=11 ErrMin= 1.05D-08
 ErrMax= 1.05D-08 EMaxC= 1.00D-01 BMatC= 1.52D-14 BMatP= 2.27D-13
 IDIUse=1 WtCom= 1.00D+00 WtEn= 0.00D+00
 Coeff-Com: -0.932D-07 0.120D-06 0.182D-05 0.351D-05 0.476D-05-0.238D-04
 Coeff-Com: -0.420D-03-0.766D-02-0.437D-02 0.166D+00 0.847D+00
 Coeff:     -0.932D-07 0.120D-06 0.182D-05 0.351D-05 0.476D-05-0.238D-04
 Coeff:     -0.420D-03-0.766D-02-0.437D-02 0.166D+00 0.847D+00
 Gap=     0.195 Goal=   None    Shift=    0.000
 RMSDP=9.92D-09 MaxDP=1.57D-07 DE=-5.12D-13 OVMax= 6.31D-08

 SCF Done:  E(RB3LYP) =  -79.5506982419     A.U. after   11 cycles
             Convg  =    0.9917D-08             -V/T =  2.0123
 KE= 7.858189857373D+01 PE=-2.653950713476D+02 EE= 6.592036906225D+01
 Leave Link  502 at Wed May 26 19:10:35 2021, MaxMem=   13107200 cpu:       7.0
 (Enter /programs/64bit/g09/g09-gfortran/bin/l601.exe)
 Copying SCF densities to generalized density rwf, IOpCl= 0 IROHF=0.

 **********************************************************************

            Population analysis using the SCF density.

 **********************************************************************

 Alpha  occ. eigenvalues --  -10.22181 -10.22093  -0.78418  -0.68280  -0.49263
 Alpha  occ. eigenvalues --   -0.43720  -0.36512  -0.28705  -0.23426
 Alpha virt. eigenvalues --   -0.03968  -0.00569   0.03299   0.05232   0.06022
 Alpha virt. eigenvalues --    0.07029   0.08796   0.09457   0.12306   0.15112
 Alpha virt. eigenvalues --    0.17886   0.20719   0.22706   0.26083   0.39238
 Alpha virt. eigenvalues --    0.65416   0.66889   0.69221   0.71084   0.74618
 Alpha virt. eigenvalues --    0.82423   0.82568   0.85575   0.91179   0.92892
 Alpha virt. eigenvalues --    0.96367   1.06123   1.15007   1.22362   1.26949
 Alpha virt. eigenvalues --    1.31826   1.56788   1.66949   1.76177   1.78961
 Alpha virt. eigenvalues --    1.87727   1.93561   1.95070   2.10621   2.18202
 Alpha virt. eigenvalues --    2.19581   2.26735   2.40378   2.42470   2.54186
 Alpha virt. eigenvalues --    2.58251   2.61114   2.73598   2.75405   2.82536
 Alpha virt. eigenvalues --    2.97443   3.02995   3.03705   3.25007   3.29032
 Alpha virt. eigenvalues --    3.39021   3.70331   4.25431   4.96421
          Condensed to atoms (all electrons):
              1          2          3          4          5          6
     1  C    5.500836   0.031326   0.387038   0.355376   0.236829  -0.114460
     2  C    0.031326   5.374936   0.018668  -0.128647   0.002255   0.460932
     3  H    0.387038   0.018668   0.581859  -0.091133  -0.071824   0.004290
     4  H    0.355376  -0.128647  -0.091133   0.895741  -0.060020  -0.007358
     5  H    0.236829   0.002255  -0.071824  -0.060020   0.832731  -0.023901
     6  H   -0.114460   0.460932   0.004290  -0.007358  -0.023901   0.631506
     7  H   -0.165589   0.486565   0.002035  -0.022966   0.007852  -0.029494
     8  H    0.104977   0.201456  -0.000459   0.004886   0.000376  -0.065995
              7          8
     1  C   -0.165589   0.104977
     2  C    0.486565   0.201456
     3  H    0.002035  -0.000459
     4  H   -0.022966   0.004886
     5  H    0.007852   0.000376
     6  H   -0.029494  -0.065995
     7  H    0.649405  -0.071824
     8  H   -0.071824   0.630597
 Mulliken atomic charges:
              1
     1  C   -0.336336
     2  C   -0.447493
     3  H    0.169527
     4  H    0.054121
     5  H    0.075701
     6  H    0.144479
     7  H    0.144015
     8  H    0.195986
 Sum of Mulliken atomic charges =   0.00000
 Mulliken charges with hydrogens summed into heavy atoms:
              1
     1  C   -0.036987
     2  C    0.036987
 Sum of Mulliken charges with hydrogens summed into heavy atoms =   0.00000
 Electronic spatial extent (au):  <R**2>=            156.8764
 Charge=              0.0000 electrons
 Dipole moment (field-independent basis, Debye):
    X=             -1.1201    Y=             -0.9761    Z=              0.3751  Tot=              1.5324
 Quadrupole moment (field-independent basis, Debye-Ang):
   XX=            -16.3943   YY=            -18.4766   ZZ=            -11.7074
   XY=             -0.1129   XZ=             -0.3088   YZ=             -1.2642
 Traceless Quadrupole moment (field-independent basis, Debye-Ang):
   XX=             -0.8682   YY=             -2.9505   ZZ=              3.8187
   XY=             -0.1129   XZ=             -0.3088   YZ=             -1.2642
 Octapole moment (field-independent basis, Debye-Ang**2):
  XXX=              4.1667  YYY=              4.2989  ZZZ=            -26.3930  XYY=              1.7931
  XXY=              0.7904  XXZ=            -12.0955  XZZ=             -2.0179  YZZ=             -3.9294
  YYZ=            -13.6969  XYZ=             -1.8230
 Hexadecapole moment (field-independent basis, Debye-Ang**3):
 XXXX=            -34.7343 YYYY=            -35.7325 ZZZZ=           -138.8323 XXXY=             -0.4209
 XXXZ=             -0.6150 YYYX=             -0.8173 YYYZ=              0.6353 ZZZX=             -7.1527
 ZZZY=            -11.1212 XXYY=            -11.7166 XXZZ=            -35.1012 YYZZ=            -38.9774
 XXYZ=              0.4397 YYXZ=              0.3649 ZZXY=             -2.8791
 N-N= 4.134210546972D+01 E-N=-2.653950718181D+02  KE= 7.858189857373D+01
 No NMR shielding tensors so no spin-rotation constants.
 Leave Link  601 at Wed May 26 19:10:36 2021, MaxMem=   13107200 cpu:       0.0
 (Enter /programs/64bit/g09/g09-gfortran/bin/l701.exe)
 Compute integral first derivatives.
 ... and contract with generalized density number  0.
 Leave Link  701 at Wed May 26 19:10:36 2021, MaxMem=   13107200 cpu:       0.1
 (Enter /programs/64bit/g09/g09-gfortran/bin/l702.exe)
 L702 exits ... SP integral derivatives will be done elsewhere.
 Leave Link  702 at Wed May 26 19:10:36 2021, MaxMem=   13107200 cpu:       0.0
 (Enter /programs/64bit/g09/g09-gfortran/bin/l703.exe)
 Compute integral first derivatives, UseDBF=F ICtDFT=           0.
 Integral derivatives from FoFDir, PRISM(SPDF).
 Calling FoFJK, ICntrl=      2127 FMM=F ISym2X=0 I1Cent= 0 IOpClX= 0 NMat=1 NMatS=1 NMatT=0.
 FoFCou: FMM=F IPFlag=           0 FMFlag=      100000 FMFlg1=         800
         NFxFlg=           0 DoJE=F BraDBF=F KetDBF=F FulRan=T
         Omega=  0.000000  0.000000  1.000000  0.000000  0.000000 ICntrl=    2127 IOpCl=  0
         NMat0=    1 NMatS0=    1 NMatT0=    0 NMatD0=    1 NMtDS0=    0 NMtDT0=    0
         I1Cent=           0 NGrid=           0.
 Symmetry not used in FoFCou.
 Leave Link  703 at Wed May 26 19:10:37 2021, MaxMem=   13107200 cpu:       1.4
 (Enter /programs/64bit/g09/g09-gfortran/bin/l716.exe)
 Dipole        =-4.40700776D-01-3.84020962D-01 1.47584848D-01
 -------------------------------------------------------------------
 Center     Atomic                   Forces (Hartrees/Bohr)
 Number     Number              X              Y              Z
 -------------------------------------------------------------------
      1        6          -0.114767641   -0.050879256   -0.079966946
      2        6          -0.012012277   -0.050800184    0.088745697
      3        1           0.080796127    0.050448422    0.003028111
      4        1           0.039660892   -0.025141054    0.046205134
      5        1          -0.010968372    0.049831492    0.035073771
      6        1          -0.008807558   -0.023741758   -0.026712836
      7        1          -0.015573745   -0.021749761   -0.022852882
      8        1           0.041672575    0.072032098   -0.043520050
 -------------------------------------------------------------------
 Cartesian Forces:  Max     0.114767641 RMS     0.050589655
 -----------------------------------------------------------------------------------------------
                       Internal Coordinate Forces (Hartree/Bohr or radian)
  Cent   Atom   N1       Length/X         N2         Alpha/Y        N3         Beta/Z          J
 -----------------------------------------------------------------------------------------------
      1  C 
      2  C        1  -0.004340(     1)
      3  H        1  -0.000796(     2)      2  -0.168464(     8)
      4  H        1  -0.013303(     3)      2  -0.101773(     9)      3  -0.101514(    14)     0
      5  H        1   0.000442(     4)      2  -0.081520(    10)      3   0.103116(    15)     0
      6  H        2  -0.000180(     5)      1  -0.058822(    11)      3  -0.001318(    16)     0
      7  H        2   0.003148(     6)      1  -0.052712(    12)      6  -0.048370(    17)     0
      8  H        2  -0.041423(     7)      1  -0.200692(    13)      6  -0.000004(    18)     0
 -----------------------------------------------------------------------------------------------
 Internal  Forces:  Max     0.200692348 RMS     0.080657440
 Force constants in Cartesian coordinates: 
                1             2             3             4             5 
      1  0.392339D+01
      2 -0.457158D+01  0.255210D+02
      3  0.106058D+00  0.588499D-01  0.833245D+00
      4 -0.754355D+01  0.101726D+02  0.350137D-01  0.169557D+02
      5  0.541703D+01 -0.155435D+02  0.197731D-01 -0.120309D+02  0.126436D+02
      6 -0.123454D-01 -0.213589D-01 -0.323771D+00 -0.624620D-01 -0.107725D+00
      7 -0.116442D+00  0.485853D-03 -0.425835D-01  0.327227D-01 -0.313825D-02
      8  0.161194D+01 -0.130312D+02 -0.267937D-01 -0.348988D+01  0.712551D+01
      9  0.600596D-02  0.134178D-04 -0.335092D+00  0.903701D-03 -0.866687D-04
     10 -0.576427D-01 -0.111305D+00 -0.360586D-01 -0.723604D-01  0.465050D-01
     11 -0.866645D-01 -0.148974D+00 -0.419071D-01  0.457216D-01 -0.181131D-01
     12 -0.351060D-01 -0.577098D-01 -0.830099D-01 -0.114385D-01 -0.202441D-01
     13 -0.252756D+00  0.676131D-02 -0.624295D-01  0.106198D-01 -0.136669D-02
     14 -0.635565D-01 -0.227488D-01 -0.992225D-02  0.964074D-01 -0.470475D-01
     15 -0.769578D-01 -0.115354D-02 -0.913728D-01 -0.244788D-01  0.557618D-03
     16  0.862773D-02 -0.191118D-04  0.000000D+00 -0.297956D+00  0.659762D-02
     17 -0.196386D-02 -0.104015D+00  0.000000D+00 -0.209918D-01 -0.240143D-01
     18  0.256196D-01 -0.400033D-04  0.000000D+00  0.937741D-01  0.195419D-01
     19  0.106524D-01  0.979431D-01  0.000000D+00 -0.122732D+00  0.374076D-01
     20  0.116486D-02  0.653191D-01  0.000000D+00  0.107268D+00 -0.271185D+00
     21 -0.128550D-01  0.221251D-01  0.000000D+00 -0.299132D-01  0.906049D-01
     22  0.402772D+01 -0.559485D+01  0.000000D+00 -0.896248D+01  0.652787D+01
     23 -0.230636D+01  0.326408D+01  0.000000D+00  0.511981D+01 -0.386518D+01
     24 -0.419220D-03 -0.726223D-03  0.000000D+00 -0.139896D-02 -0.242214D-02
                6             7             8             9            10 
      6  0.762096D+00
      7  0.000000D+00  0.909406D-01
      8  0.000000D+00  0.108511D-01  0.698480D+01
      9  0.000000D+00 -0.671023D-02  0.299674D-03  0.333730D+00
     10  0.000000D+00  0.391885D-02 -0.953044D-02  0.108226D-03  0.837818D-01
     11  0.000000D+00 -0.876009D-02 -0.572403D-02 -0.241927D-03  0.735801D-01
     12  0.000000D+00  0.160040D-01  0.272502D-01  0.441982D-03  0.308362D-01
     13  0.000000D+00 -0.111403D-01  0.500538D-03 -0.307660D-03 -0.106680D-02
     14  0.000000D+00  0.561364D-03  0.985592D-02  0.155031D-04  0.257921D-01
     15  0.000000D+00  0.332897D-01 -0.756181D-03  0.919359D-03  0.511419D-02
     16  0.721754D-01  0.000000D+00  0.364273D-05  0.000000D+00  0.000000D+00
     17  0.288662D-01  0.000000D+00  0.671805D-01  0.000000D+00  0.155297D-02
     18 -0.115221D+00  0.000000D+00  0.000000D+00  0.000000D+00  0.000000D+00
     19 -0.110249D-01  0.000000D+00 -0.580690D-01  0.000000D+00 -0.134235D-02
     20  0.765905D-01  0.000000D+00 -0.336216D-01  0.000000D+00 -0.777212D-03
     21 -0.114900D+00  0.000000D+00  0.000000D+00  0.000000D+00  0.000000D+00
     22  0.136569D-01  0.000000D+00  0.193419D+01  0.000000D+00  0.447115D-01
     23  0.236268D-01  0.000000D+00 -0.111684D+01  0.000000D+00 -0.258174D-01
     24 -0.208205D+00  0.000000D+00  0.000000D+00  0.000000D+00  0.000000D+00
               11            12            13            14            15 
     11  0.175335D+00
     12  0.455676D-01  0.813013D-01
     13  0.725924D-03 -0.295599D-03  0.255643D+00
     14 -0.167295D-01  0.513605D-02 -0.737163D-02  0.467413D-01
     15 -0.341859D-02  0.126661D-02  0.630327D-01  0.477069D-02  0.891869D-01
     16  0.000000D+00  0.000000D+00  0.000000D+00  0.000000D+00  0.000000D+00
     17 -0.880988D-03  0.000000D+00 -0.465454D-04 -0.185603D-02  0.000000D+00
     18  0.000000D+00  0.000000D+00  0.000000D+00  0.000000D+00  0.000000D+00
     19  0.761503D-03  0.000000D+00  0.402326D-04  0.160431D-02  0.000000D+00
     20  0.440906D-03  0.000000D+00  0.232945D-04  0.928885D-03  0.000000D+00
     21  0.000000D+00  0.000000D+00  0.000000D+00  0.000000D+00  0.000000D+00
     22 -0.253644D-01  0.000000D+00 -0.134008D-02 -0.534369D-01  0.000000D+00
     23  0.146460D-01  0.000000D+00  0.773795D-03  0.308557D-01  0.000000D+00
     24  0.000000D+00  0.000000D+00  0.000000D+00  0.000000D+00  0.000000D+00
               16            17            18            19            20 
     16  0.304302D+00
     17 -0.473799D-02  0.445071D-01
     18 -0.749256D-01 -0.140232D-01  0.107052D+00
     19 -0.471170D-02  0.269947D-01 -0.139953D-01  0.113412D+00
     20 -0.170891D-02  0.992656D-02 -0.507605D-02 -0.114480D+00  0.233982D+00
     21  0.261873D-02 -0.146547D-01  0.777845D-02  0.252488D-01 -0.715335D-01
     22 -0.102623D-01 -0.807449D-03 -0.304728D-01  0.468164D-02  0.850958D-02
     23 -0.135109D-03  0.915174D-02 -0.402669D-03  0.783750D-02 -0.579155D-02
     24  0.131444D-03 -0.188367D-03  0.390341D-03 -0.228604D-03  0.190400D-04
               21            22            23            24 
     21  0.106733D+00
     22  0.149006D-01  0.489697D+01
     23 -0.265418D-01 -0.279611D+01  0.166908D+01
     24  0.389030D-03  0.191534D-02  0.331769D-02  0.207426D+00
 Force constants in internal coordinates: 
                1             2             3             4             5 
      1  0.323771D+00
      2  0.000000D+00  0.333916D+00
      3  0.000000D+00  0.000000D+00  0.235689D+00
      4  0.000000D+00  0.000000D+00  0.000000D+00  0.276949D+00
      5  0.000000D+00  0.000000D+00  0.000000D+00  0.000000D+00  0.329535D+00
      6  0.000000D+00  0.000000D+00  0.000000D+00  0.000000D+00  0.000000D+00
      7  0.000000D+00  0.000000D+00  0.000000D+00  0.000000D+00  0.000000D+00
      8  0.000000D+00  0.000000D+00  0.000000D+00  0.000000D+00  0.000000D+00
      9  0.000000D+00  0.000000D+00  0.000000D+00  0.000000D+00  0.000000D+00
     10  0.000000D+00  0.000000D+00  0.000000D+00  0.000000D+00  0.000000D+00
     11  0.000000D+00  0.000000D+00  0.000000D+00  0.000000D+00  0.000000D+00
     12  0.000000D+00  0.000000D+00  0.000000D+00  0.000000D+00  0.000000D+00
     13  0.000000D+00  0.000000D+00  0.000000D+00  0.000000D+00  0.000000D+00
     14  0.000000D+00  0.000000D+00  0.000000D+00  0.000000D+00  0.000000D+00
     15  0.000000D+00  0.000000D+00  0.000000D+00  0.000000D+00  0.000000D+00
     16  0.000000D+00  0.000000D+00  0.000000D+00  0.000000D+00  0.000000D+00
     17  0.000000D+00  0.000000D+00  0.000000D+00  0.000000D+00  0.000000D+00
     18  0.000000D+00  0.000000D+00  0.000000D+00  0.000000D+00  0.000000D+00
                6             7             8             9            10 
      6  0.328105D+00
      7  0.000000D+00  0.207521D+00
      8  0.000000D+00  0.000000D+00  0.394039D+00
      9  0.000000D+00  0.000000D+00  0.813180D-01  0.326127D+00
     10  0.000000D+00  0.000000D+00  0.160641D+00  0.714739D-02  0.328235D+00
     11  0.000000D+00  0.000000D+00  0.000000D+00  0.000000D+00  0.000000D+00
     12  0.000000D+00  0.000000D+00  0.000000D+00  0.000000D+00  0.000000D+00
     13  0.000000D+00  0.000000D+00  0.000000D+00  0.000000D+00  0.000000D+00
     14  0.000000D+00  0.000000D+00  0.348796D-01  0.228807D-01  0.307400D-01
     15  0.000000D+00  0.000000D+00 -0.122309D-02 -0.260129D-01 -0.305946D-01
     16  0.000000D+00  0.000000D+00  0.000000D+00  0.000000D+00  0.000000D+00
     17  0.000000D+00  0.000000D+00  0.000000D+00  0.000000D+00  0.000000D+00
     18  0.000000D+00  0.000000D+00  0.000000D+00  0.000000D+00  0.000000D+00
               11            12            13            14            15 
     11  0.357853D+00
     12  0.379248D-01  0.357850D+00
     13  0.819287D-01  0.817527D-01  0.308779D+00
     14  0.000000D+00  0.000000D+00  0.000000D+00  0.201037D+00
     15  0.000000D+00  0.000000D+00  0.000000D+00 -0.138064D+00  0.201469D+00
     16  0.622093D-03 -0.622272D-03 -0.285077D-04  0.229775D-01  0.229775D-01
     17 -0.641735D-01 -0.613465D-01 -0.355383D-01  0.765916D-02  0.765916D-02
     18  0.344518D-02 -0.344778D-02  0.181884D-05  0.765916D-02  0.765916D-02
               16            17            18 
     16  0.147432D+00
     17  0.627684D-01  0.174829D+00
     18  0.218960D-01 -0.622311D-03  0.231417D-01
 Leave Link  716 at Wed May 26 19:10:37 2021, MaxMem=   13107200 cpu:       0.0
 (Enter /programs/64bit/g09/g09-gfortran/bin/l103.exe)

 GradGradGradGradGradGradGradGradGradGradGradGradGradGradGradGradGradGrad
 Berny optimization.
 Search for a local minimum.
 Step number   1 out of a maximum of    2
 All quantities printed in internal units (Hartrees-Bohrs-Radians)
 Second derivative matrix not updated -- first step.
 The second derivative matrix:
                          d1        a1        t1        d2        a2
           d1           0.32377
           a1           0.00000   0.39404
           t1           0.00000   0.03488   0.20104
           d2           0.00000  -0.00000  -0.00000   0.33392
           a2           0.00000   0.08132   0.02288  -0.00000   0.32613
           t2           0.00000  -0.00122  -0.13806   0.00000  -0.02601
           d3          -0.00000  -0.00000  -0.00000  -0.00000  -0.00000
           d4           0.00000   0.00000  -0.00000  -0.00000  -0.00000
           a3          -0.00000   0.16064   0.03074  -0.00000   0.00715
           d5          -0.00000   0.00000  -0.00000   0.00000  -0.00000
           a4          -0.00000   0.00000  -0.00000   0.00000   0.00000
           t3          -0.00000   0.00000   0.02298   0.00000  -0.00000
           d6          -0.00000   0.00000   0.00000   0.00000  -0.00000
           a5          -0.00000   0.00000  -0.00000   0.00000   0.00000
           t4          -0.00000   0.00000   0.00766   0.00000   0.00000
           d7          -0.00000   0.00000  -0.00000   0.00000  -0.00000
           a6          -0.00000   0.00000   0.00000   0.00000   0.00000
           t5           0.00000   0.00000   0.00766   0.00000   0.00000
                          t2        d3        d4        a3        d5
           t2           0.20147
           d3           0.00000   0.23569
           d4           0.00000   0.00000   0.27695
           a3          -0.03059  -0.00000  -0.00000   0.32823
           d5           0.00000   0.00000   0.00000  -0.00000   0.32953
           a4          -0.00000  -0.00000  -0.00000   0.00000   0.00000
           t3           0.02298   0.00000   0.00000  -0.00000   0.00000
           d6           0.00000   0.00000   0.00000  -0.00000  -0.00000
           a5          -0.00000  -0.00000  -0.00000   0.00000  -0.00000
           t4           0.00766  -0.00000   0.00000   0.00000   0.00000
           d7          -0.00000   0.00000  -0.00000   0.00000  -0.00000
           a6           0.00000  -0.00000   0.00000  -0.00000  -0.00000
           t5           0.00766   0.00000  -0.00000   0.00000  -0.00000
                          a4        t3        d6        a5        t4
           a4           0.35785
           t3           0.00062   0.14743
           d6           0.00000  -0.00000   0.32810
           a5           0.03792  -0.00062   0.00000   0.35785
           t4          -0.06417   0.06277  -0.00000  -0.06135   0.17483
           d7          -0.00000   0.00000  -0.00000  -0.00000   0.00000
           a6           0.08193  -0.00003  -0.00000   0.08175  -0.03554
           t5           0.00345   0.02190   0.00000  -0.00345  -0.00062
                          d7        a6        t5
           d7           0.20752
           a6          -0.00000   0.30878
           t5           0.00000   0.00000   0.02314
     Eigenvalues --- 1000.000001000.000001000.000001000.000001000.00000
     Eigenvalues --- 1000.000001000.000001000.000001000.000001000.00000
     Eigenvalues --- 1000.000001000.000001000.000001000.000001000.00000
     Eigenvalues --- 1000.000001000.000001000.00000
 Angle between quadratic step and forces=  90.00 degrees.
 Linear search not attempted -- first point.
 Variable       Old X    -DE/DX   Delta X   Delta X   Delta X     New X
                                 (Linear)    (Quad)   (Total)
    d1        2.83459  -0.00434   0.00000   0.00000   0.00000   2.83459
    a1        3.11398  -0.16846   0.00000   0.00000   0.00000   3.11398
    t1        2.08682  -0.10151   0.00000   0.00000   0.00000   2.08682
    d2        2.08369  -0.00080   0.00000   0.00000   0.00000   2.08369
    a2        1.91216  -0.10177   0.00000   0.00000   0.00000   1.91216
    t2       -3.11652   0.10312   0.00000   0.00000   0.00000  -3.11652
    d3        2.29693  -0.01330   0.00000   0.00000   0.00000   2.29693
    d4        2.19510   0.00044   0.00000   0.00000   0.00000   2.19510
    a3        1.89401  -0.08152   0.00000   0.00000   0.00000   1.89401
    d5        2.09133  -0.00018   0.00000   0.00000   0.00000   2.09133
    a4        1.89563  -0.05882   0.00000   0.00000   0.00000   1.89563
    t3        3.14154  -0.00132   0.00000   0.00000   0.00000   3.14154
    d6        2.09386   0.00315   0.00000   0.00000   0.00000   2.09386
    a5        1.89566  -0.05271   0.00000   0.00000   0.00000   1.89566
    t4        2.09568  -0.04837   0.00000   0.00000   0.00000   2.09568
    d7        2.38122  -0.04142   0.00000   0.00000   0.00000   2.38122
    a6        3.11655  -0.20069   0.00000   0.00000   0.00000   3.11655
    t5       -2.09440  -0.00000   0.00000   0.00000   0.00000  -2.09440
         Item               Value     Threshold  Converged?
 Maximum Force            0.000000     0.000450     YES
 RMS     Force            0.000000     0.000300     YES
 Maximum Displacement     0.000000     0.001800     YES
 RMS     Displacement     0.000000     0.001200     YES
 Predicted change in Energy=-0.000000D+00
 Optimization completed.
    -- Stationary point found.
                       ----------------------------
                       !   Optimized Parameters   !
                       ! (Angstroms and Degrees)  !
 ----------------------                            ----------------------
 !      Name          Value   Derivative information (Atomic Units)     !
 ------------------------------------------------------------------------
 !       d1          1.5      -DE/DX =   -0.0043                        !
 !       a1        178.4181   -DE/DX =   -0.1685                        !
 !       t1        119.5659   -DE/DX =   -0.1015                        !
 !       d2          1.1026   -DE/DX =   -0.0008                        !
 !       a2        109.5587   -DE/DX =   -0.1018                        !
 !       t2       -178.5634   -DE/DX =    0.1031                        !
 !       d3          1.2155   -DE/DX =   -0.0133                        !
 !       d4          1.1616   -DE/DX =    0.0004                        !
 !       a3        108.519    -DE/DX =   -0.0815                        !
 !       d5          1.1067   -DE/DX =   -0.0002                        !
 !       a4        108.6118   -DE/DX =   -0.0588                        !
 !       t3        179.9969   -DE/DX =   -0.0013                        !
 !       d6          1.108    -DE/DX =    0.0031                        !
 !       a5        108.6133   -DE/DX =   -0.0527                        !
 !       t4        120.0737   -DE/DX =   -0.0484                        !
 !       d7          1.2601   -DE/DX =   -0.0414                        !
 !       a6        178.5654   -DE/DX =   -0.2007                        !
 !       t5       -120.0      -DE/DX =    0.0                           !
 ------------------------------------------------------------------------
 GradGradGradGradGradGradGradGradGradGradGradGradGradGradGradGradGradGrad

 Leave Link  103 at Wed May 26 19:10:37 2021, MaxMem=   13107200 cpu:       0.0
 (Enter /programs/64bit/g09/g09-gfortran/bin/l9999.exe)
 1\1\GINC-MOLMOD\Force\RB3LYP\6-31+G(d,p)\C2H6\OSPITE\26-May-2021\1\\#p
  b3lyp/6-31+g(d,p) force nosym\\c2h6 molecule\\0,1\C\C,1,d1\H,1,d2,2,a
 1\H,1,d3,2,a2,3,t1,0\H,1,d4,2,a3,3,t2,0\H,2,d5,1,a4,3,t3,0\H,2,d6,1,a5
 ,6,t4,0\H,2,d7,1,a6,6,t5,0\\d1=1.50000234\a1=178.41806926\t1=119.56586
 241\d2=1.10264246\a2=109.55868956\t2=-178.56344338\d3=1.21548184\d4=1.
 16159935\a3=108.51897546\d5=1.10668564\a4=108.61181884\t3=179.99689325
 \d6=1.10802089\a5=108.61327436\t4=120.07371484\d7=1.26008628\a6=178.56
 54161\t5=-119.99999826\\Version=EM64L-G09RevA.02\HF=-79.5506982\RMSD=9
 .917e-09\RMSF=5.059e-02\Dipole=-0.4407008,-0.384021,0.1475848\Quadrupo
 le=-0.6454771,-2.1936042,2.8390813,-0.0839216,-0.2295897,-0.939903\PG=
 C01 [X(C2H6)]\\@


 I FIND THAT THE THREE TRULY GREAT TIMES FOR THINKING THOUGHTS
 ARE WHEN I AM STANDING IN THE SHOWER, SITTING ON THE JOHN, OR WALKING.

                                    -- COLIN FLETCHER
 Job cpu time:  0 days  0 hours  0 minutes  9.6 seconds.
 File lengths (MBytes):  RWF=      5 Int=      0 D2E=      0 Chk=      1 Scr=      1
 Normal termination of Gaussian 09 at Wed May 26 19:10:37 2021.
