 Entering Gaussian System, Link 0=g09
 Input=c2h6_056.com
 Output=c2h6_056.log
 Initial command:
 /programs/64bit/g09/g09-gfortran/bin/l1.exe /data/scratch/Gau-7277.inp -scrdir=/data/scratch/
 Entering Link 1 = /programs/64bit/g09/g09-gfortran/bin/l1.exe PID=      7278.
  
 Copyright (c) 1988,1990,1992,1993,1995,1998,2003,2009, Gaussian, Inc.
                  All Rights Reserved.
  
 This is part of the Gaussian(R) 09 program.  It is based on
 the Gaussian(R) 03 system (copyright 2003, Gaussian, Inc.),
 the Gaussian(R) 98 system (copyright 1998, Gaussian, Inc.),
 the Gaussian(R) 94 system (copyright 1995, Gaussian, Inc.),
 the Gaussian 92(TM) system (copyright 1992, Gaussian, Inc.),
 the Gaussian 90(TM) system (copyright 1990, Gaussian, Inc.),
 the Gaussian 88(TM) system (copyright 1988, Gaussian, Inc.),
 the Gaussian 86(TM) system (copyright 1986, Carnegie Mellon
 University), and the Gaussian 82(TM) system (copyright 1983,
 Carnegie Mellon University). Gaussian is a federally registered
 trademark of Gaussian, Inc.
  
 This software contains proprietary and confidential information,
 including trade secrets, belonging to Gaussian, Inc.
  
 This software is provided under written license and may be
 used, copied, transmitted, or stored only in accord with that
 written license.
  
 The following legend is applicable only to US Government
 contracts under FAR:
  
                    RESTRICTED RIGHTS LEGEND
  
 Use, reproduction and disclosure by the US Government is
 subject to restrictions as set forth in subparagraphs (a)
 and (c) of the Commercial Computer Software - Restricted
 Rights clause in FAR 52.227-19.
  
 Gaussian, Inc.
 340 Quinnipiac St., Bldg. 40, Wallingford CT 06492
  
  
 ---------------------------------------------------------------
 Warning -- This program may not be used in any manner that
 competes with the business of Gaussian, Inc. or will provide
 assistance to any competitor of Gaussian, Inc.  The licensee
 of this program is prohibited from giving any competitor of
 Gaussian, Inc. access to this program.  By using this program,
 the user acknowledges that Gaussian, Inc. is engaged in the
 business of creating and licensing software in the field of
 computational chemistry and represents and warrants to the
 licensee that it is not a competitor of Gaussian, Inc. and that
 it will not use this program in any manner prohibited above.
 ---------------------------------------------------------------
  

 Cite this work as:
 Gaussian 09, Revision A.02,
 M. J. Frisch, G. W. Trucks, H. B. Schlegel, G. E. Scuseria, 
 M. A. Robb, J. R. Cheeseman, G. Scalmani, V. Barone, B. Mennucci, 
 G. A. Petersson, H. Nakatsuji, M. Caricato, X. Li, H. P. Hratchian, 
 A. F. Izmaylov, J. Bloino, G. Zheng, J. L. Sonnenberg, M. Hada, 
 M. Ehara, K. Toyota, R. Fukuda, J. Hasegawa, M. Ishida, T. Nakajima, 
 Y. Honda, O. Kitao, H. Nakai, T. Vreven, J. A. Montgomery, Jr., 
 J. E. Peralta, F. Ogliaro, M. Bearpark, J. J. Heyd, E. Brothers, 
 K. N. Kudin, V. N. Staroverov, R. Kobayashi, J. Normand, 
 K. Raghavachari, A. Rendell, J. C. Burant, S. S. Iyengar, J. Tomasi, 
 M. Cossi, N. Rega, J. M. Millam, M. Klene, J. E. Knox, J. B. Cross, 
 V. Bakken, C. Adamo, J. Jaramillo, R. Gomperts, R. E. Stratmann, 
 O. Yazyev, A. J. Austin, R. Cammi, C. Pomelli, J. W. Ochterski, 
 R. L. Martin, K. Morokuma, V. G. Zakrzewski, G. A. Voth, 
 P. Salvador, J. J. Dannenberg, S. Dapprich, A. D. Daniels, 
 O. Farkas, J. B. Foresman, J. V. Ortiz, J. Cioslowski, 
 and D. J. Fox, Gaussian, Inc., Wallingford CT, 2009.
 
 ******************************************
 Gaussian 09:  EM64L-G09RevA.02 11-Jun-2009
                26-May-2021 
 ******************************************
 %chk=c2h6_056.chk
 %mem=100MB
 --------------------------------
 #p b3lyp/6-31+g(d,p) force nosym
 --------------------------------
 1/10=7,30=1,38=1/1,3;
 2/12=2,15=1,17=6,18=5,40=1/2;
 3/5=1,6=6,7=111,11=2,16=1,25=1,30=1,71=1,74=-5/1,2,3;
 4//1;
 5/5=2,38=5/2;
 6/7=2,8=2,9=2,10=2,28=1/1;
 7/29=1,30=1/1,2,3,16;
 1/10=7,30=1/3;
 99//99;
 Leave Link    1 at Wed May 26 19:17:16 2021, MaxMem=   13107200 cpu:       0.0
 (Enter /programs/64bit/g09/g09-gfortran/bin/l101.exe)
 -------------
 c2h6 molecule
 -------------
 Symbolic Z-matrix:
 Charge =  0 Multiplicity = 1
 C1
 C2                   1    d1
 H3                   1    d2       2    a1
 H4                   1    d3       2    a2       3    t1       0
 H5                   1    d4       2    a3       3    t2       0
 H6                   2    d5       1    a4       3    t3       0
 H7                   2    d6       1    a5       6    t4       0
 H8                   2    d7       1    a6       6    t5       0
       Variables:
       Constants:
  d1                    1.5402                   
  a1                  111.21299                  
  t1                  107.33842                  
  d2                    1.0934                   
  a2                  104.58644                  
  t2                 -141.9969                   
  d3                    1.10542                  
  d4                    1.08992                  
  a3                  113.8246                   
  d5                    1.09751                  
  a4                  106.06359                  
  t3                  178.90123                  
  d6                    1.09622                  
  a5                  114.64597                  
  t4                  113.59175                  
  d7                    1.094                    
  a6                  114.24972                  
  t5                 -123.17207                  
 
 NAtoms=      8 NQM=      8 NQMF=      0 NMic=      0 NMicF=      0 NTot=      8.
                    Isotopes and Nuclear Properties:
 (Nuclear quadrupole moments (NQMom) in fm**2, nuclear magnetic moments (NMagM)
  in nuclear magnetons)

  Atom         1           2           3           4           5           6           7           8
 IAtWgt=          12          12           1           1           1           1           1           1
 AtmWgt=  12.0000000  12.0000000   1.0078250   1.0078250   1.0078250   1.0078250   1.0078250   1.0078250
 NucSpn=           0           0           1           1           1           1           1           1
 AtZEff=   0.0000000   0.0000000   0.0000000   0.0000000   0.0000000   0.0000000   0.0000000   0.0000000
 NQMom=    0.0000000   0.0000000   0.0000000   0.0000000   0.0000000   0.0000000   0.0000000   0.0000000
 NMagM=    0.0000000   0.0000000   2.7928460   2.7928460   2.7928460   2.7928460   2.7928460   2.7928460
 Leave Link  101 at Wed May 26 19:17:16 2021, MaxMem=   13107200 cpu:       0.0
 (Enter /programs/64bit/g09/g09-gfortran/bin/l103.exe)

 GradGradGradGradGradGradGradGradGradGradGradGradGradGradGradGradGradGrad
 Berny optimization.
 Initialization pass.
                       ----------------------------
                       !    Initial Parameters    !
                       ! (Angstroms and Degrees)  !
 ----------------------                            ----------------------
 !      Name          Value   Derivative information (Atomic Units)     !
 ------------------------------------------------------------------------
 !       d1          1.5402   Frozen                                    !
 !       a1        111.213    Frozen                                    !
 !       t1        107.3384   Frozen                                    !
 !       d2          1.0934   Frozen                                    !
 !       a2        104.5864   Frozen                                    !
 !       t2       -141.9969   Frozen                                    !
 !       d3          1.1054   Frozen                                    !
 !       d4          1.0899   Frozen                                    !
 !       a3        113.8246   Frozen                                    !
 !       d5          1.0975   Frozen                                    !
 !       a4        106.0636   Frozen                                    !
 !       t3        178.9012   Frozen                                    !
 !       d6          1.0962   Frozen                                    !
 !       a5        114.646    Frozen                                    !
 !       t4        113.5917   Frozen                                    !
 !       d7          1.094    Frozen                                    !
 !       a6        114.2497   Frozen                                    !
 !       t5       -123.1721   Frozen                                    !
 ------------------------------------------------------------------------
 Trust Radius=3.00D-01 FncErr=1.00D-07 GrdErr=1.00D-07
 Number of steps in this run=   2 maximum allowed number of steps=   2.
 GradGradGradGradGradGradGradGradGradGradGradGradGradGradGradGradGradGrad

 Leave Link  103 at Wed May 26 19:17:16 2021, MaxMem=   13107200 cpu:       0.0
 (Enter /programs/64bit/g09/g09-gfortran/bin/l202.exe)
                          Input orientation:                          
 ---------------------------------------------------------------------
 Center     Atomic      Atomic             Coordinates (Angstroms)
 Number     Number       Type             X           Y           Z
 ---------------------------------------------------------------------
      1          6           0        0.000000    0.000000    0.000000
      2          6           0        0.000000    0.000000    1.540198
      3          1           0        1.019316    0.000000   -0.395633
      4          1           0       -0.318815   -1.021185   -0.278390
      5          1           0       -0.785651    0.613887   -0.440262
      6          1           0       -1.054465    0.020224    1.843883
      7          1           0        0.381176   -0.920558    1.997332
      8          1           0        0.561679    0.824292    1.989518
 ---------------------------------------------------------------------
                    Distance matrix (angstroms):
                    1          2          3          4          5
     1  C    0.000000
     2  C    1.540198   0.000000
     3  H    1.093404   2.187795   0.000000
     4  H    1.105424   2.109911   1.687353   0.000000
     5  H    1.089925   2.217279   1.907029   1.708097   0.000000
     6  H    2.124196   1.097511   3.052279   2.475835   2.375293
     7  H    2.232052   1.096218   2.642145   2.383070   3.107711
     8  H    2.225561   1.093997   2.564729   3.053598   2.786288
                    6          7          8
     6  H    0.000000
     7  H    1.723276   0.000000
     8  H    1.810983   1.754180   0.000000
 Symmetry turned off by external request.
 Stoichiometry    C2H6
 Framework group  C1[X(C2H6)]
 Deg. of freedom    18
 Full point group                 C1      NOp   1
 Rotational constants (GHZ):     80.0404991     19.9629252     19.6371827
 Leave Link  202 at Wed May 26 19:17:16 2021, MaxMem=   13107200 cpu:       0.0
 (Enter /programs/64bit/g09/g09-gfortran/bin/l301.exe)
 Standard basis: 6-31+G(d,p) (6D, 7F)
 Ernie: Thresh=  0.10000D-02 Tol=  0.10000D-05 Strict=F.
 Integral buffers will be    131072 words long.
 Raffenetti 2 integral format.
 Two-electron integral symmetry is turned off.
    68 basis functions,   106 primitive gaussians,    68 cartesian basis functions
     9 alpha electrons        9 beta electrons
       nuclear repulsion energy        42.0553960064 Hartrees.
 IExCor=  402 DFT=T Ex+Corr=B3LYP ExCW=0 ScaHFX=  0.200000
 ScaDFX=  0.800000  0.720000  1.000000  0.810000 ScalE2=  1.000000  1.000000
 IRadAn=      0 IRanWt=     -1 IRanGd=            0 ICorTp=0
 NAtoms=    8 NActive=    8 NUniq=    8 SFac= 7.50D-01 NAtFMM=   80 NAOKFM=F Big=F
 Leave Link  301 at Wed May 26 19:17:16 2021, MaxMem=   13107200 cpu:       0.0
 (Enter /programs/64bit/g09/g09-gfortran/bin/l302.exe)
 NPDir=0 NMtPBC=     1 NCelOv=     1 NCel=       1 NClECP=     1 NCelD=      1
         NCelK=      1 NCelE2=     1 NClLst=     1 CellRange=     0.0.
 One-electron integrals computed using PRISM.
 NBasis=    68 RedAO= T  NBF=    68
 NBsUse=    68 1.00D-06 NBFU=    68
 Precomputing XC quadrature grid using
 IXCGrd= 2 IRadAn=           0 IRanWt=          -1 IRanGd=           0 AccXCQ= 1.00D-10.
 NRdTot=     510 NPtTot=       65100 NUsed=       68787 NTot=       68819
 NSgBfM=    68    68    68    68    68 NAtAll=     8     8.
 Leave Link  302 at Wed May 26 19:17:16 2021, MaxMem=   13107200 cpu:       0.1
 (Enter /programs/64bit/g09/g09-gfortran/bin/l303.exe)
 DipDrv:  MaxL=1.
 Leave Link  303 at Wed May 26 19:17:16 2021, MaxMem=   13107200 cpu:       0.0
 (Enter /programs/64bit/g09/g09-gfortran/bin/l401.exe)
 Harris functional with IExCor=  402 diagonalized for initial guess.
 ExpMin= 4.38D-02 ExpMax= 3.05D+03 ExpMxC= 4.57D+02 IAcc=2 IRadAn=         0 AccDes= 0.00D+00
 HarFok:  IExCor=  402 AccDes= 0.00D+00 IRadAn=         0 IDoV= 1
 ScaDFX=  1.000000  1.000000  1.000000  1.000000
 FoFCou: FMM=F IPFlag=           0 FMFlag=      100000 FMFlg1=           0
         NFxFlg=           0 DoJE=T BraDBF=F KetDBF=T FulRan=T
         Omega=  0.000000  0.000000  1.000000  0.000000  0.000000 ICntrl=     500 IOpCl=  0
         NMat0=    1 NMatS0=    1 NMatT0=    0 NMatD0=    1 NMtDS0=    0 NMtDT0=    0
         I1Cent=           4 NGrid=           0.
 Symmetry not used in FoFCou.
 Harris En= -79.8883961649689    
 Leave Link  401 at Wed May 26 19:17:16 2021, MaxMem=   13107200 cpu:       0.6
 (Enter /programs/64bit/g09/g09-gfortran/bin/l502.exe)
 Closed shell SCF:
 Requested convergence on RMS density matrix=1.00D-08 within 128 cycles.
 Requested convergence on MAX density matrix=1.00D-06.
 Requested convergence on             energy=1.00D-06.
 No special actions if energy rises.
 Using DIIS extrapolation, IDIIS=  1040.
 Two-electron integral symmetry not used.
        68702 words used for storage of precomputed grid.
 Keep R1 ints in memory in canonical form, NReq=3743087.
 IEnd=      101552 IEndB=      101552 NGot=    13107200 MDV=    10273922
 LenX=    10273922 LenY=    10268857
 Symmetry not used in FoFDir.
 MinBra= 0 MaxBra= 2 Meth= 1.
 IRaf=       0 NMat=   1 IRICut=       1 DoRegI=T DoRafI=F ISym2E= 0 JSym2E=0.

 Cycle   1  Pass 1  IDiag  1:
 E= -79.7013755499902    
 DIIS: error= 3.99D-02 at cycle   1 NSaved=   1.
 NSaved= 1 IEnMin= 1 EnMin= -79.7013755499902     IErMin= 1 ErrMin= 3.99D-02
 ErrMax= 3.99D-02 EMaxC= 1.00D-01 BMatC= 1.15D-01 BMatP= 1.15D-01
 IDIUse=3 WtCom= 6.01D-01 WtEn= 3.99D-01
 Coeff-Com:  0.100D+01
 Coeff-En:   0.100D+01
 Coeff:      0.100D+01
 Gap=     0.266 Goal=   None    Shift=    0.000
 GapD=    0.266 DampG=1.000 DampE=0.500 DampFc=0.5000 IDamp=-1.
 Damping current iteration by 5.00D-01
 RMSDP=9.71D-03 MaxDP=1.43D-01              OVMax= 2.03D-01

 Cycle   2  Pass 1  IDiag  1:
 E= -79.7551623265747     Delta-E=       -0.053786776585 Rises=F Damp=T
 DIIS: error= 1.13D-02 at cycle   2 NSaved=   2.
 NSaved= 2 IEnMin= 2 EnMin= -79.7551623265747     IErMin= 2 ErrMin= 1.13D-02
 ErrMax= 1.13D-02 EMaxC= 1.00D-01 BMatC= 4.75D-03 BMatP= 1.15D-01
 IDIUse=3 WtCom= 8.87D-01 WtEn= 1.13D-01
 Coeff-Com:  0.112D+00 0.888D+00
 Coeff-En:   0.192D+00 0.808D+00
 Coeff:      0.121D+00 0.879D+00
 Gap=     0.376 Goal=   None    Shift=    0.000
 RMSDP=1.35D-03 MaxDP=1.12D-02 DE=-5.38D-02 OVMax= 1.18D-01

 Cycle   3  Pass 1  IDiag  1:
 E= -79.8316893330800     Delta-E=       -0.076527006505 Rises=F Damp=F
 DIIS: error= 1.77D-03 at cycle   3 NSaved=   3.
 NSaved= 3 IEnMin= 3 EnMin= -79.8316893330800     IErMin= 3 ErrMin= 1.77D-03
 ErrMax= 1.77D-03 EMaxC= 1.00D-01 BMatC= 1.86D-04 BMatP= 4.75D-03
 IDIUse=3 WtCom= 9.82D-01 WtEn= 1.77D-02
 Coeff-Com:  0.844D-02 0.122D+00 0.870D+00
 Coeff-En:   0.000D+00 0.000D+00 0.100D+01
 Coeff:      0.829D-02 0.120D+00 0.872D+00
 Gap=     0.348 Goal=   None    Shift=    0.000
 RMSDP=2.29D-04 MaxDP=2.11D-03 DE=-7.65D-02 OVMax= 4.59D-03

 Cycle   4  Pass 1  IDiag  1:
 E= -79.8318530561020     Delta-E=       -0.000163723022 Rises=F Damp=F
 DIIS: error= 4.08D-04 at cycle   4 NSaved=   4.
 NSaved= 4 IEnMin= 4 EnMin= -79.8318530561020     IErMin= 4 ErrMin= 4.08D-04
 ErrMax= 4.08D-04 EMaxC= 1.00D-01 BMatC= 1.17D-05 BMatP= 1.86D-04
 IDIUse=3 WtCom= 9.96D-01 WtEn= 4.08D-03
 Coeff-Com: -0.505D-03-0.487D-02 0.190D+00 0.816D+00
 Coeff-En:   0.000D+00 0.000D+00 0.000D+00 0.100D+01
 Coeff:     -0.503D-03-0.485D-02 0.189D+00 0.816D+00
 Gap=     0.348 Goal=   None    Shift=    0.000
 RMSDP=5.08D-05 MaxDP=4.38D-04 DE=-1.64D-04 OVMax= 1.13D-03

 Cycle   5  Pass 1  IDiag  1:
 E= -79.8318644184781     Delta-E=       -0.000011362376 Rises=F Damp=F
 DIIS: error= 4.48D-05 at cycle   5 NSaved=   5.
 NSaved= 5 IEnMin= 5 EnMin= -79.8318644184781     IErMin= 5 ErrMin= 4.48D-05
 ErrMax= 4.48D-05 EMaxC= 1.00D-01 BMatC= 1.62D-07 BMatP= 1.17D-05
 IDIUse=1 WtCom= 1.00D+00 WtEn= 0.00D+00
 Coeff-Com:  0.116D-03-0.206D-02 0.513D-01 0.237D+00 0.713D+00
 Coeff:      0.116D-03-0.206D-02 0.513D-01 0.237D+00 0.713D+00
 Gap=     0.348 Goal=   None    Shift=    0.000
 RMSDP=7.41D-06 MaxDP=1.16D-04 DE=-1.14D-05 OVMax= 1.61D-04

 Cycle   6  Pass 1  IDiag  1:
 E= -79.8318645615636     Delta-E=       -0.000000143086 Rises=F Damp=F
 DIIS: error= 2.70D-05 at cycle   6 NSaved=   6.
 NSaved= 6 IEnMin= 6 EnMin= -79.8318645615636     IErMin= 6 ErrMin= 2.70D-05
 ErrMax= 2.70D-05 EMaxC= 1.00D-01 BMatC= 3.09D-08 BMatP= 1.62D-07
 IDIUse=1 WtCom= 1.00D+00 WtEn= 0.00D+00
 Coeff-Com:  0.180D-03-0.520D-03 0.439D-02 0.265D-01 0.316D+00 0.653D+00
 Coeff:      0.180D-03-0.520D-03 0.439D-02 0.265D-01 0.316D+00 0.653D+00
 Gap=     0.348 Goal=   None    Shift=    0.000
 RMSDP=2.32D-06 MaxDP=5.17D-05 DE=-1.43D-07 OVMax= 6.11D-05

 Cycle   7  Pass 1  IDiag  1:
 E= -79.8318645905169     Delta-E=       -0.000000028953 Rises=F Damp=F
 DIIS: error= 5.42D-06 at cycle   7 NSaved=   7.
 NSaved= 7 IEnMin= 7 EnMin= -79.8318645905169     IErMin= 7 ErrMin= 5.42D-06
 ErrMax= 5.42D-06 EMaxC= 1.00D-01 BMatC= 1.68D-09 BMatP= 3.09D-08
 IDIUse=1 WtCom= 1.00D+00 WtEn= 0.00D+00
 Coeff-Com:  0.749D-04-0.880D-04-0.186D-02-0.598D-02 0.799D-01 0.270D+00
 Coeff-Com:  0.658D+00
 Coeff:      0.749D-04-0.880D-04-0.186D-02-0.598D-02 0.799D-01 0.270D+00
 Coeff:      0.658D+00
 Gap=     0.348 Goal=   None    Shift=    0.000
 RMSDP=6.26D-07 MaxDP=9.09D-06 DE=-2.90D-08 OVMax= 1.35D-05

 Cycle   8  Pass 1  IDiag  1:
 E= -79.8318645922598     Delta-E=       -0.000000001743 Rises=F Damp=F
 DIIS: error= 1.85D-07 at cycle   8 NSaved=   8.
 NSaved= 8 IEnMin= 8 EnMin= -79.8318645922598     IErMin= 8 ErrMin= 1.85D-07
 ErrMax= 1.85D-07 EMaxC= 1.00D-01 BMatC= 4.02D-12 BMatP= 1.68D-09
 IDIUse=1 WtCom= 1.00D+00 WtEn= 0.00D+00
 Coeff-Com:  0.186D-06 0.999D-07-0.190D-03-0.740D-03 0.724D-03 0.978D-02
 Coeff-Com:  0.579D-01 0.933D+00
 Coeff:      0.186D-06 0.999D-07-0.190D-03-0.740D-03 0.724D-03 0.978D-02
 Coeff:      0.579D-01 0.933D+00
 Gap=     0.348 Goal=   None    Shift=    0.000
 RMSDP=4.11D-08 MaxDP=4.80D-07 DE=-1.74D-09 OVMax= 7.12D-07

 Cycle   9  Pass 1  IDiag  1:
 E= -79.8318645922644     Delta-E=       -0.000000000005 Rises=F Damp=F
 DIIS: error= 2.59D-08 at cycle   9 NSaved=   9.
 NSaved= 9 IEnMin= 9 EnMin= -79.8318645922644     IErMin= 9 ErrMin= 2.59D-08
 ErrMax= 2.59D-08 EMaxC= 1.00D-01 BMatC= 6.59D-14 BMatP= 4.02D-12
 IDIUse=1 WtCom= 1.00D+00 WtEn= 0.00D+00
 Coeff-Com: -0.884D-06 0.723D-06-0.135D-04-0.685D-04-0.751D-03-0.109D-02
 Coeff-Com:  0.396D-02 0.165D+00 0.833D+00
 Coeff:     -0.884D-06 0.723D-06-0.135D-04-0.685D-04-0.751D-03-0.109D-02
 Coeff:      0.396D-02 0.165D+00 0.833D+00
 Gap=     0.348 Goal=   None    Shift=    0.000
 RMSDP=5.29D-09 MaxDP=6.30D-08 DE=-4.58D-12 OVMax= 9.02D-08

 SCF Done:  E(RB3LYP) =  -79.8318645923     A.U. after    9 cycles
             Convg  =    0.5294D-08             -V/T =  2.0110
 KE= 7.896154752568D+01 PE=-2.678242124487D+02 EE= 6.697540432440D+01
 Leave Link  502 at Wed May 26 19:17:21 2021, MaxMem=   13107200 cpu:       5.0
 (Enter /programs/64bit/g09/g09-gfortran/bin/l601.exe)
 Copying SCF densities to generalized density rwf, IOpCl= 0 IROHF=0.

 **********************************************************************

            Population analysis using the SCF density.

 **********************************************************************

 Alpha  occ. eigenvalues --  -10.17942 -10.17803  -0.75339  -0.61758  -0.44655
 Alpha  occ. eigenvalues --   -0.42652  -0.37113  -0.34718  -0.33106
 Alpha virt. eigenvalues --    0.01684   0.03011   0.05167   0.05538   0.08004
 Alpha virt. eigenvalues --    0.08817   0.09099   0.14251   0.15021   0.20003
 Alpha virt. eigenvalues --    0.20659   0.23915   0.25208   0.29310   0.32880
 Alpha virt. eigenvalues --    0.62104   0.64222   0.64845   0.67298   0.68310
 Alpha virt. eigenvalues --    0.69929   0.88663   0.92036   0.94266   0.99915
 Alpha virt. eigenvalues --    1.01279   1.09826   1.10225   1.30872   1.34168
 Alpha virt. eigenvalues --    1.46530   1.65698   1.70332   1.88069   1.93114
 Alpha virt. eigenvalues --    2.02996   2.08754   2.11105   2.17003   2.17857
 Alpha virt. eigenvalues --    2.24845   2.28939   2.37854   2.45662   2.53275
 Alpha virt. eigenvalues --    2.66909   2.73331   2.76644   2.82270   2.85647
 Alpha virt. eigenvalues --    2.94092   3.21691   3.29535   3.37630   3.41059
 Alpha virt. eigenvalues --    3.48428   3.55210   4.34051   4.58750
          Condensed to atoms (all electrons):
              1          2          3          4          5          6
     1  C    5.098354   0.258899   0.398924   0.411056   0.409042  -0.048424
     2  C    0.258899   5.106662  -0.039656  -0.061444  -0.042607   0.402569
     3  H    0.398924  -0.039656   0.547443  -0.037587  -0.016644   0.004715
     4  H    0.411056  -0.061444  -0.037587   0.588544  -0.036642  -0.003015
     5  H    0.409042  -0.042607  -0.016644  -0.036642   0.537822  -0.006664
     6  H   -0.048424   0.402569   0.004715  -0.003015  -0.006664   0.566746
     7  H   -0.043663   0.408263  -0.000990  -0.008705   0.004029  -0.033258
     8  H   -0.036177   0.397184  -0.005409   0.005058  -0.001512  -0.024343
              7          8
     1  C   -0.043663  -0.036177
     2  C    0.408263   0.397184
     3  H   -0.000990  -0.005409
     4  H   -0.008705   0.005058
     5  H    0.004029  -0.001512
     6  H   -0.033258  -0.024343
     7  H    0.562060  -0.032716
     8  H   -0.032716   0.551807
 Mulliken atomic charges:
              1
     1  C   -0.448012
     2  C   -0.429869
     3  H    0.149205
     4  H    0.142735
     5  H    0.153177
     6  H    0.141676
     7  H    0.144981
     8  H    0.146107
 Sum of Mulliken atomic charges =  -0.00000
 Mulliken charges with hydrogens summed into heavy atoms:
              1
     1  C   -0.002895
     2  C    0.002895
 Sum of Mulliken charges with hydrogens summed into heavy atoms =  -0.00000
 Electronic spatial extent (au):  <R**2>=            149.5085
 Charge=             -0.0000 electrons
 Dipole moment (field-independent basis, Debye):
    X=             -0.0596    Y=             -0.1577    Z=             -0.0068  Tot=              0.1687
 Quadrupole moment (field-independent basis, Debye-Ang):
   XX=            -14.7579   YY=            -15.4117   ZZ=            -15.8479
   XY=             -0.1434   XZ=              0.1740   YZ=             -0.1489
 Traceless Quadrupole moment (field-independent basis, Debye-Ang):
   XX=              0.5813   YY=             -0.0725   ZZ=             -0.5088
   XY=             -0.1434   XZ=              0.1740   YZ=             -0.1489
 Octapole moment (field-independent basis, Debye-Ang**2):
  XXX=              0.2642  YYY=              0.7001  ZZZ=            -36.6406  XYY=              0.2633
  XXY=              0.6893  XXZ=            -11.9231  XZZ=              0.5779  YZZ=              0.0399
  YYZ=            -11.5694  XYZ=              0.4311
 Hexadecapole moment (field-independent basis, Debye-Ang**3):
 XXXX=            -31.3603 YYYY=            -31.3495 ZZZZ=           -155.7951 XXXY=             -0.2381
 XXXZ=             -0.8130 YYYX=              0.1607 YYYZ=              0.0314 ZZZX=              1.6738
 ZZZY=             -0.6983 XXYY=            -10.6485 XXZZ=            -30.1514 YYZZ=            -29.8053
 XXYZ=              0.1584 YYXZ=              1.1886 ZZXY=              0.4620
 N-N= 4.205539600640D+01 E-N=-2.678242119837D+02  KE= 7.896154752568D+01
 No NMR shielding tensors so no spin-rotation constants.
 Leave Link  601 at Wed May 26 19:17:22 2021, MaxMem=   13107200 cpu:       0.0
 (Enter /programs/64bit/g09/g09-gfortran/bin/l701.exe)
 Compute integral first derivatives.
 ... and contract with generalized density number  0.
 Leave Link  701 at Wed May 26 19:17:22 2021, MaxMem=   13107200 cpu:       0.0
 (Enter /programs/64bit/g09/g09-gfortran/bin/l702.exe)
 L702 exits ... SP integral derivatives will be done elsewhere.
 Leave Link  702 at Wed May 26 19:17:22 2021, MaxMem=   13107200 cpu:       0.0
 (Enter /programs/64bit/g09/g09-gfortran/bin/l703.exe)
 Compute integral first derivatives, UseDBF=F ICtDFT=           0.
 Integral derivatives from FoFDir, PRISM(SPDF).
 Calling FoFJK, ICntrl=      2127 FMM=F ISym2X=0 I1Cent= 0 IOpClX= 0 NMat=1 NMatS=1 NMatT=0.
 FoFCou: FMM=F IPFlag=           0 FMFlag=      100000 FMFlg1=         800
         NFxFlg=           0 DoJE=F BraDBF=F KetDBF=F FulRan=T
         Omega=  0.000000  0.000000  1.000000  0.000000  0.000000 ICntrl=    2127 IOpCl=  0
         NMat0=    1 NMatS0=    1 NMatT0=    0 NMatD0=    1 NMtDS0=    0 NMtDT0=    0
         I1Cent=           0 NGrid=           0.
 Symmetry not used in FoFCou.
 Leave Link  703 at Wed May 26 19:17:23 2021, MaxMem=   13107200 cpu:       1.2
 (Enter /programs/64bit/g09/g09-gfortran/bin/l716.exe)
 Dipole        =-2.34635170D-02-6.20450680D-02-2.68069848D-03
 -------------------------------------------------------------------
 Center     Atomic                   Forces (Hartrees/Bohr)
 Number     Number              X              Y              Z
 -------------------------------------------------------------------
      1        6           0.001083529   -0.043931673    0.011507841
      2        6          -0.011138996    0.000967527    0.000499640
      3        1          -0.002928702    0.018383321   -0.007156144
      4        1          -0.002551815    0.001451374   -0.001271182
      5        1           0.012386057    0.013722337   -0.002991405
      6        1           0.002248380    0.007080943    0.006855746
      7        1           0.005406737   -0.001226509   -0.006864367
      8        1          -0.004505191    0.003552679   -0.000580130
 -------------------------------------------------------------------
 Cartesian Forces:  Max     0.043931673 RMS     0.011476064
 -----------------------------------------------------------------------------------------------
                       Internal Coordinate Forces (Hartree/Bohr or radian)
  Cent   Atom   N1       Length/X         N2         Alpha/Y        N3         Beta/Z          J
 -----------------------------------------------------------------------------------------------
      1  C 
      2  C        1  -0.000089(     1)
      3  H        1  -0.000141(     2)      2   0.015974(     8)
      4  H        1  -0.000285(     3)      2   0.002899(     9)      3   0.005799(    14)     0
      5  H        1   0.000009(     4)      2   0.006727(    10)      3   0.034742(    15)     0
      6  H        2  -0.000133(     5)      1   0.014876(    11)      3   0.005115(    16)     0
      7  H        2   0.000047(     6)      1  -0.015690(    12)      6   0.008522(    17)     0
      8  H        2   0.000126(     7)      1  -0.001432(    13)      6   0.010789(    18)     0
 -----------------------------------------------------------------------------------------------
 Internal  Forces:  Max     0.034741878 RMS     0.011141256
 Force constants in Cartesian coordinates: 
                1             2             3             4             5 
      1  0.702036D+00
      2 -0.534782D-01  0.586074D+00
      3  0.454998D-02 -0.159452D-01  0.624626D+00
      4 -0.933246D-01  0.289457D-02  0.172828D-02  0.634931D+00
      5  0.288171D-02 -0.880632D-01  0.829629D-02  0.243759D-01  0.630254D+00
      6 -0.233997D-02 -0.166051D-02 -0.285014D+00  0.271557D-01 -0.507516D-02
      7 -0.306510D+00  0.440740D-02  0.856682D-01  0.969621D-02  0.189114D-03
      8  0.150440D-01 -0.733149D-01  0.696291D-02  0.684085D-03  0.244412D-02
      9  0.971630D-01  0.113553D-01 -0.123505D+00  0.249815D-01  0.487237D-03
     10 -0.925204D-01 -0.669667D-01 -0.209865D-01  0.101457D-02  0.184600D-02
     11 -0.679878D-01 -0.291207D+00 -0.615069D-01  0.175797D-02  0.605645D-02
     12 -0.235961D-01 -0.688872D-01 -0.812413D-01 -0.761045D-02 -0.243302D-01
     13 -0.224112D+00  0.112405D+00 -0.709599D-01  0.723852D-02 -0.400973D-02
     14  0.102801D+00 -0.151662D+00  0.621929D-01 -0.443366D-02  0.601797D-02
     15 -0.781168D-01  0.734771D-01 -0.134865D+00 -0.190994D-01  0.155467D-01
     16  0.735027D-02 -0.144714D-03  0.000000D+00 -0.315789D+00  0.376444D-02
     17 -0.371355D-03  0.800840D-03  0.000000D+00  0.153687D-02 -0.713345D-01
     18  0.255465D-01 -0.555812D-03  0.000000D+00  0.825374D-01 -0.479350D-02
     19  0.281411D-02 -0.374896D-02  0.000000D+00 -0.101511D+00  0.724746D-01
     20 -0.350538D-02  0.955005D-02  0.000000D+00  0.759991D-01 -0.260782D+00
     21 -0.940551D-02  0.223575D-01  0.000000D+00 -0.466835D-01  0.101185D+00
     22  0.426669D-02  0.463190D-02  0.000000D+00 -0.142257D+00 -0.101522D+00
     23  0.461556D-02  0.782273D-02  0.000000D+00 -0.102815D+00 -0.224593D+00
     24 -0.138010D-01 -0.201412D-01  0.000000D+00 -0.630095D-01 -0.913166D-01
                6             7             8             9            10 
      6  0.638885D+00
      7  0.000000D+00  0.307463D+00
      8  0.000000D+00 -0.206226D-02  0.540681D-01
      9  0.000000D+00 -0.947091D-01 -0.531324D-02  0.100212D+00
     10  0.000000D+00 -0.413906D-02 -0.311859D-01 -0.106639D-01  0.822323D-01
     11  0.000000D+00  0.747025D-03  0.581452D-02  0.192465D-02  0.717795D-01
     12  0.000000D+00  0.199986D-02  0.143857D-01  0.515249D-02  0.214693D-01
     13  0.000000D+00 -0.650957D-02  0.175720D-01 -0.167714D-01  0.134597D-01
     14  0.000000D+00 -0.328128D-02  0.109885D-01 -0.845395D-02  0.245274D-01
     15  0.000000D+00  0.704108D-02 -0.160353D-01  0.181408D-01  0.101812D-01
     16  0.695769D-01  0.000000D+00  0.116988D-04  0.000000D+00  0.106403D-04
     17 -0.386930D-02  0.000000D+00  0.609968D-03  0.000000D+00  0.554779D-03
     18 -0.977446D-01  0.000000D+00  0.000000D+00  0.000000D+00  0.000000D+00
     19 -0.402278D-01  0.000000D+00 -0.596654D-03  0.000000D+00 -0.542669D-03
     20  0.900821D-01  0.000000D+00 -0.247057D-03  0.000000D+00 -0.224703D-03
     21 -0.126091D+00  0.000000D+00  0.000000D+00  0.000000D+00  0.000000D+00
     22 -0.541647D-01  0.000000D+00  0.533068D-03  0.000000D+00  0.484836D-03
     23 -0.794772D-01  0.000000D+00 -0.363237D-03  0.000000D+00 -0.330371D-03
     24 -0.130035D+00  0.000000D+00  0.000000D+00  0.000000D+00  0.000000D+00
               11            12            13            14            15 
     11  0.290911D+00
     12  0.644599D-01  0.698567D-01
     13 -0.631147D-02  0.773743D-02  0.209891D+00
     14 -0.115755D-01  0.143719D-01 -0.119656D+00  0.146231D+00
     15 -0.487757D-02  0.623220D-02  0.799939D-01 -0.681109D-01  0.110492D+00
     16 -0.332192D-05  0.000000D+00 -0.736390D-05 -0.942431D-05  0.000000D+00
     17 -0.173202D-03  0.000000D+00 -0.383948D-03 -0.491376D-03  0.000000D+00
     18  0.000000D+00  0.000000D+00  0.000000D+00  0.000000D+00  0.000000D+00
     19  0.169422D-03  0.000000D+00  0.375567D-03  0.480650D-03  0.000000D+00
     20  0.701525D-04  0.000000D+00  0.155511D-03  0.199023D-03  0.000000D+00
     21  0.000000D+00  0.000000D+00  0.000000D+00  0.000000D+00  0.000000D+00
     22 -0.151366D-03  0.000000D+00 -0.335543D-03 -0.429427D-03  0.000000D+00
     23  0.103142D-03  0.000000D+00  0.228642D-03  0.292615D-03  0.000000D+00
     24  0.000000D+00  0.000000D+00  0.000000D+00  0.000000D+00  0.000000D+00
               16            17            18            19            20 
     16  0.318056D+00
     17 -0.479617D-02  0.547194D-01
     18 -0.744491D-01  0.231759D-02  0.809304D-01
     19 -0.424269D-02  0.290550D-01 -0.166665D-01  0.902640D-01
     20 -0.838781D-03  0.594943D-02 -0.330864D-02 -0.820200D-01  0.258449D+00
     21  0.184862D-02 -0.122465D-01  0.723436D-02  0.439366D-01 -0.979244D-01
     22 -0.537775D-02 -0.255952D-01 -0.169682D-01  0.128423D-01  0.104343D-01
     23  0.201627D-02  0.991942D-02  0.634036D-02 -0.158141D-01 -0.131884D-01
     24  0.302362D-02  0.137982D-01  0.957981D-02  0.129578D-01  0.111510D-01
               21            22            23            24 
     21  0.107206D+00
     22  0.103038D-01  0.130376D+00
     23 -0.133719D-01  0.112099D+00  0.220007D+00
     24  0.116507D-01  0.608291D-01  0.865087D-01  0.108804D+00
 Force constants in internal coordinates: 
                1             2             3             4             5 
      1  0.285014D+00
      2  0.000000D+00  0.344223D+00
      3  0.000000D+00  0.000000D+00  0.330894D+00
      4  0.000000D+00  0.000000D+00  0.000000D+00  0.348213D+00
      5  0.000000D+00  0.000000D+00  0.000000D+00  0.000000D+00  0.339589D+00
      6  0.000000D+00  0.000000D+00  0.000000D+00  0.000000D+00  0.000000D+00
      7  0.000000D+00  0.000000D+00  0.000000D+00  0.000000D+00  0.000000D+00
      8  0.000000D+00  0.000000D+00  0.000000D+00  0.000000D+00  0.000000D+00
      9  0.000000D+00  0.000000D+00  0.000000D+00  0.000000D+00  0.000000D+00
     10  0.000000D+00  0.000000D+00  0.000000D+00  0.000000D+00  0.000000D+00
     11  0.000000D+00  0.000000D+00  0.000000D+00  0.000000D+00  0.000000D+00
     12  0.000000D+00  0.000000D+00  0.000000D+00  0.000000D+00  0.000000D+00
     13  0.000000D+00  0.000000D+00  0.000000D+00  0.000000D+00  0.000000D+00
     14  0.000000D+00  0.000000D+00  0.000000D+00  0.000000D+00  0.000000D+00
     15  0.000000D+00  0.000000D+00  0.000000D+00  0.000000D+00  0.000000D+00
     16  0.000000D+00  0.000000D+00  0.000000D+00  0.000000D+00  0.000000D+00
     17  0.000000D+00  0.000000D+00  0.000000D+00  0.000000D+00  0.000000D+00
     18  0.000000D+00  0.000000D+00  0.000000D+00  0.000000D+00  0.000000D+00
                6             7             8             9            10 
      6  0.341038D+00
      7  0.000000D+00  0.343547D+00
      8  0.000000D+00  0.000000D+00  0.270897D+00
      9  0.000000D+00  0.000000D+00  0.246504D-01  0.227697D+00
     10  0.000000D+00  0.000000D+00  0.905279D-01  0.302882D-01  0.272099D+00
     11  0.000000D+00  0.000000D+00  0.000000D+00  0.000000D+00  0.000000D+00
     12  0.000000D+00  0.000000D+00  0.000000D+00  0.000000D+00  0.000000D+00
     13  0.000000D+00  0.000000D+00  0.000000D+00  0.000000D+00  0.000000D+00
     14  0.000000D+00  0.000000D+00 -0.481813D-01  0.560171D-02  0.508525D-01
     15  0.000000D+00  0.000000D+00  0.709416D-01 -0.654323D-01  0.187388D-01
     16  0.000000D+00  0.000000D+00  0.000000D+00  0.000000D+00  0.000000D+00
     17  0.000000D+00  0.000000D+00  0.000000D+00  0.000000D+00  0.000000D+00
     18  0.000000D+00  0.000000D+00  0.000000D+00  0.000000D+00  0.000000D+00
               11            12            13            14            15 
     11  0.255869D+00
     12  0.355864D-01  0.248827D+00
     13  0.468807D-01  0.602092D-01  0.261443D+00
     14  0.000000D+00  0.000000D+00  0.000000D+00  0.244918D+00
     15  0.000000D+00  0.000000D+00  0.000000D+00 -0.115169D+00  0.192622D+00
     16  0.253801D-04 -0.353592D-04  0.735412D-04  0.702631D-02  0.702631D-02
     17 -0.677185D-01  0.134370D-01  0.693233D-01  0.234210D-02  0.234210D-02
     18  0.715702D-01 -0.689300D-01 -0.664508D-02  0.234210D-02  0.234210D-02
               16            17            18 
     16  0.210977D-01
     17  0.696212D-02  0.201704D+00
     18  0.690835D-02 -0.857903D-01  0.193526D+00
 Leave Link  716 at Wed May 26 19:17:23 2021, MaxMem=   13107200 cpu:       0.0
 (Enter /programs/64bit/g09/g09-gfortran/bin/l103.exe)

 GradGradGradGradGradGradGradGradGradGradGradGradGradGradGradGradGradGrad
 Berny optimization.
 Search for a local minimum.
 Step number   1 out of a maximum of    2
 All quantities printed in internal units (Hartrees-Bohrs-Radians)
 Second derivative matrix not updated -- first step.
 The second derivative matrix:
                          d1        a1        t1        d2        a2
           d1           0.28501
           a1           0.00000   0.27090
           t1          -0.00000  -0.04818   0.24492
           d2           0.00000  -0.00000  -0.00000   0.34422
           a2           0.00000   0.02465   0.00560   0.00000   0.22770
           t2          -0.00000   0.07094  -0.11517   0.00000  -0.06543
           d3          -0.00000  -0.00000  -0.00000   0.00000  -0.00000
           d4          -0.00000   0.00000  -0.00000   0.00000   0.00000
           a3           0.00000   0.09053   0.05085   0.00000   0.03029
           d5           0.00000   0.00000   0.00000   0.00000  -0.00000
           a4           0.00000   0.00000  -0.00000   0.00000   0.00000
           t3          -0.00000   0.00000   0.00703   0.00000   0.00000
           d6           0.00000   0.00000   0.00000   0.00000   0.00000
           a5          -0.00000   0.00000  -0.00000   0.00000  -0.00000
           t4          -0.00000   0.00000   0.00234   0.00000   0.00000
           d7           0.00000   0.00000  -0.00000   0.00000  -0.00000
           a6          -0.00000   0.00000   0.00000   0.00000   0.00000
           t5          -0.00000   0.00000   0.00234   0.00000   0.00000
                          t2        d3        d4        a3        d5
           t2           0.19262
           d3           0.00000   0.33089
           d4          -0.00000  -0.00000   0.34821
           a3           0.01874  -0.00000   0.00000   0.27210
           d5           0.00000   0.00000   0.00000   0.00000   0.33959
           a4          -0.00000  -0.00000   0.00000  -0.00000  -0.00000
           t3           0.00703   0.00000   0.00000  -0.00000   0.00000
           d6           0.00000   0.00000  -0.00000   0.00000   0.00000
           a5          -0.00000   0.00000   0.00000  -0.00000   0.00000
           t4           0.00234   0.00000   0.00000   0.00000   0.00000
           d7           0.00000   0.00000  -0.00000  -0.00000   0.00000
           a6          -0.00000  -0.00000   0.00000   0.00000   0.00000
           t5           0.00234  -0.00000   0.00000  -0.00000  -0.00000
                          a4        t3        d6        a5        t4
           a4           0.25587
           t3           0.00003   0.02110
           d6          -0.00000  -0.00000   0.34104
           a5           0.03559  -0.00004  -0.00000   0.24883
           t4          -0.06772   0.00696  -0.00000   0.01344   0.20170
           d7          -0.00000  -0.00000   0.00000   0.00000  -0.00000
           a6           0.04688   0.00007   0.00000   0.06021   0.06932
           t5           0.07157   0.00691   0.00000  -0.06893  -0.08579
                          d7        a6        t5
           d7           0.34355
           a6          -0.00000   0.26144
           t5          -0.00000  -0.00665   0.19353
     Eigenvalues --- 1000.000001000.000001000.000001000.000001000.00000
     Eigenvalues --- 1000.000001000.000001000.000001000.000001000.00000
     Eigenvalues --- 1000.000001000.000001000.000001000.000001000.00000
     Eigenvalues --- 1000.000001000.000001000.00000
 Angle between quadratic step and forces=  90.00 degrees.
 Linear search not attempted -- first point.
 Variable       Old X    -DE/DX   Delta X   Delta X   Delta X     New X
                                 (Linear)    (Quad)   (Total)
    d1        2.91055  -0.00009   0.00000   0.00000   0.00000   2.91055
    a1        1.94103   0.01597   0.00000   0.00000   0.00000   1.94103
    t1        1.87341   0.00580   0.00000   0.00000   0.00000   1.87341
    d2        2.06623  -0.00014   0.00000   0.00000   0.00000   2.06623
    a2        1.82538   0.00290   0.00000   0.00000   0.00000   1.82538
    t2       -2.47831   0.03474   0.00000   0.00000   0.00000  -2.47831
    d3        2.08895  -0.00028   0.00000   0.00000   0.00000   2.08895
    d4        2.05966   0.00001   0.00000   0.00000   0.00000   2.05966
    a3        1.98661   0.00673   0.00000   0.00000   0.00000   1.98661
    d5        2.07400  -0.00013   0.00000   0.00000   0.00000   2.07400
    a4        1.85116   0.01488   0.00000   0.00000   0.00000   1.85116
    t3        3.12242   0.00511   0.00000   0.00000   0.00000   3.12242
    d6        2.07155   0.00005   0.00000   0.00000   0.00000   2.07155
    a5        2.00095  -0.01569   0.00000   0.00000   0.00000   2.00095
    t4        1.98255   0.00852   0.00000   0.00000   0.00000   1.98255
    d7        2.06736   0.00013   0.00000   0.00000   0.00000   2.06736
    a6        1.99403  -0.00143   0.00000   0.00000   0.00000   1.99403
    t5       -2.14976   0.01079   0.00000   0.00000   0.00000  -2.14976
         Item               Value     Threshold  Converged?
 Maximum Force            0.000000     0.000450     YES
 RMS     Force            0.000000     0.000300     YES
 Maximum Displacement     0.000000     0.001800     YES
 RMS     Displacement     0.000000     0.001200     YES
 Predicted change in Energy=-0.000000D+00
 Optimization completed.
    -- Stationary point found.
                       ----------------------------
                       !   Optimized Parameters   !
                       ! (Angstroms and Degrees)  !
 ----------------------                            ----------------------
 !      Name          Value   Derivative information (Atomic Units)     !
 ------------------------------------------------------------------------
 !       d1          1.5402   -DE/DX =   -0.0001                        !
 !       a1        111.213    -DE/DX =    0.016                         !
 !       t1        107.3384   -DE/DX =    0.0058                        !
 !       d2          1.0934   -DE/DX =   -0.0001                        !
 !       a2        104.5864   -DE/DX =    0.0029                        !
 !       t2       -141.9969   -DE/DX =    0.0347                        !
 !       d3          1.1054   -DE/DX =   -0.0003                        !
 !       d4          1.0899   -DE/DX =    0.0                           !
 !       a3        113.8246   -DE/DX =    0.0067                        !
 !       d5          1.0975   -DE/DX =   -0.0001                        !
 !       a4        106.0636   -DE/DX =    0.0149                        !
 !       t3        178.9012   -DE/DX =    0.0051                        !
 !       d6          1.0962   -DE/DX =    0.0                           !
 !       a5        114.646    -DE/DX =   -0.0157                        !
 !       t4        113.5917   -DE/DX =    0.0085                        !
 !       d7          1.094    -DE/DX =    0.0001                        !
 !       a6        114.2497   -DE/DX =   -0.0014                        !
 !       t5       -123.1721   -DE/DX =    0.0108                        !
 ------------------------------------------------------------------------
 GradGradGradGradGradGradGradGradGradGradGradGradGradGradGradGradGradGrad

 Leave Link  103 at Wed May 26 19:17:23 2021, MaxMem=   13107200 cpu:       0.0
 (Enter /programs/64bit/g09/g09-gfortran/bin/l9999.exe)
 1\1\GINC-MOLMOD\Force\RB3LYP\6-31+G(d,p)\C2H6\OSPITE\26-May-2021\1\\#p
  b3lyp/6-31+g(d,p) force nosym\\c2h6 molecule\\0,1\C\C,1,d1\H,1,d2,2,a
 1\H,1,d3,2,a2,3,t1,0\H,1,d4,2,a3,3,t2,0\H,2,d5,1,a4,3,t3,0\H,2,d6,1,a5
 ,6,t4,0\H,2,d7,1,a6,6,t5,0\\d1=1.5401976\a1=111.21299458\t1=107.338423
 79\d2=1.09340356\a2=104.58643579\t2=-141.9968982\d3=1.10542386\d4=1.08
 992465\a3=113.82459607\d5=1.0975109\a4=106.06358718\t3=178.90123485\d6
 =1.09621793\a5=114.645967\t4=113.59174953\d7=1.09399744\a6=114.2497192
 8\t5=-123.17206908\\Version=EM64L-G09RevA.02\HF=-79.8318646\RMSD=5.294
 e-09\RMSF=1.148e-02\Dipole=-0.0234635,-0.0620451,-0.0026807\Quadrupole
 =0.432178,-0.0539284,-0.3782496,-0.1066372,0.1293785,-0.1107342\PG=C01
  [X(C2H6)]\\@


 A successful marriage requires falling in love
 many times, always with the same person.
                           -- Mignon McLaughlin
 Job cpu time:  0 days  0 hours  0 minutes  7.1 seconds.
 File lengths (MBytes):  RWF=      5 Int=      0 D2E=      0 Chk=      1 Scr=      1
 Normal termination of Gaussian 09 at Wed May 26 19:17:23 2021.
