 Entering Gaussian System, Link 0=g09
 Input=c2h6_024.com
 Output=c2h6_024.log
 Initial command:
 /programs/64bit/g09/g09-gfortran/bin/l1.exe /data/scratch/Gau-6453.inp -scrdir=/data/scratch/
 Entering Link 1 = /programs/64bit/g09/g09-gfortran/bin/l1.exe PID=      6454.
  
 Copyright (c) 1988,1990,1992,1993,1995,1998,2003,2009, Gaussian, Inc.
                  All Rights Reserved.
  
 This is part of the Gaussian(R) 09 program.  It is based on
 the Gaussian(R) 03 system (copyright 2003, Gaussian, Inc.),
 the Gaussian(R) 98 system (copyright 1998, Gaussian, Inc.),
 the Gaussian(R) 94 system (copyright 1995, Gaussian, Inc.),
 the Gaussian 92(TM) system (copyright 1992, Gaussian, Inc.),
 the Gaussian 90(TM) system (copyright 1990, Gaussian, Inc.),
 the Gaussian 88(TM) system (copyright 1988, Gaussian, Inc.),
 the Gaussian 86(TM) system (copyright 1986, Carnegie Mellon
 University), and the Gaussian 82(TM) system (copyright 1983,
 Carnegie Mellon University). Gaussian is a federally registered
 trademark of Gaussian, Inc.
  
 This software contains proprietary and confidential information,
 including trade secrets, belonging to Gaussian, Inc.
  
 This software is provided under written license and may be
 used, copied, transmitted, or stored only in accord with that
 written license.
  
 The following legend is applicable only to US Government
 contracts under FAR:
  
                    RESTRICTED RIGHTS LEGEND
  
 Use, reproduction and disclosure by the US Government is
 subject to restrictions as set forth in subparagraphs (a)
 and (c) of the Commercial Computer Software - Restricted
 Rights clause in FAR 52.227-19.
  
 Gaussian, Inc.
 340 Quinnipiac St., Bldg. 40, Wallingford CT 06492
  
  
 ---------------------------------------------------------------
 Warning -- This program may not be used in any manner that
 competes with the business of Gaussian, Inc. or will provide
 assistance to any competitor of Gaussian, Inc.  The licensee
 of this program is prohibited from giving any competitor of
 Gaussian, Inc. access to this program.  By using this program,
 the user acknowledges that Gaussian, Inc. is engaged in the
 business of creating and licensing software in the field of
 computational chemistry and represents and warrants to the
 licensee that it is not a competitor of Gaussian, Inc. and that
 it will not use this program in any manner prohibited above.
 ---------------------------------------------------------------
  

 Cite this work as:
 Gaussian 09, Revision A.02,
 M. J. Frisch, G. W. Trucks, H. B. Schlegel, G. E. Scuseria, 
 M. A. Robb, J. R. Cheeseman, G. Scalmani, V. Barone, B. Mennucci, 
 G. A. Petersson, H. Nakatsuji, M. Caricato, X. Li, H. P. Hratchian, 
 A. F. Izmaylov, J. Bloino, G. Zheng, J. L. Sonnenberg, M. Hada, 
 M. Ehara, K. Toyota, R. Fukuda, J. Hasegawa, M. Ishida, T. Nakajima, 
 Y. Honda, O. Kitao, H. Nakai, T. Vreven, J. A. Montgomery, Jr., 
 J. E. Peralta, F. Ogliaro, M. Bearpark, J. J. Heyd, E. Brothers, 
 K. N. Kudin, V. N. Staroverov, R. Kobayashi, J. Normand, 
 K. Raghavachari, A. Rendell, J. C. Burant, S. S. Iyengar, J. Tomasi, 
 M. Cossi, N. Rega, J. M. Millam, M. Klene, J. E. Knox, J. B. Cross, 
 V. Bakken, C. Adamo, J. Jaramillo, R. Gomperts, R. E. Stratmann, 
 O. Yazyev, A. J. Austin, R. Cammi, C. Pomelli, J. W. Ochterski, 
 R. L. Martin, K. Morokuma, V. G. Zakrzewski, G. A. Voth, 
 P. Salvador, J. J. Dannenberg, S. Dapprich, A. D. Daniels, 
 O. Farkas, J. B. Foresman, J. V. Ortiz, J. Cioslowski, 
 and D. J. Fox, Gaussian, Inc., Wallingford CT, 2009.
 
 ******************************************
 Gaussian 09:  EM64L-G09RevA.02 11-Jun-2009
                26-May-2021 
 ******************************************
 %chk=c2h6_024.chk
 %mem=100MB
 --------------------------------
 #p b3lyp/6-31+g(d,p) force nosym
 --------------------------------
 1/10=7,30=1,38=1/1,3;
 2/12=2,15=1,17=6,18=5,40=1/2;
 3/5=1,6=6,7=111,11=2,16=1,25=1,30=1,71=1,74=-5/1,2,3;
 4//1;
 5/5=2,38=5/2;
 6/7=2,8=2,9=2,10=2,28=1/1;
 7/29=1,30=1/1,2,3,16;
 1/10=7,30=1/3;
 99//99;
 Leave Link    1 at Wed May 26 19:11:50 2021, MaxMem=   13107200 cpu:       0.0
 (Enter /programs/64bit/g09/g09-gfortran/bin/l101.exe)
 -------------
 c2h6 molecule
 -------------
 Symbolic Z-matrix:
 Charge =  0 Multiplicity = 1
 C1
 C2                   1    d1
 H3                   1    d2       2    a1
 H4                   1    d3       2    a2       3    t1       0
 H5                   1    d4       2    a3       3    t2       0
 H6                   2    d5       1    a4       3    t3       0
 H7                   2    d6       1    a5       6    t4       0
 H8                   2    d7       1    a6       6    t5       0
       Variables:
       Constants:
  d1                    1.61528                  
  a1                  155.22173                  
  t1                  102.51407                  
  d2                    1.16327                  
  a2                   92.14677                  
  t2                 -161.41184                  
  d3                    1.35871                  
  d4                    1.10256                  
  a3                   90.13821                  
  d5                    1.08658                  
  a4                   93.69955                  
  t3                  179.86025                  
  d6                    1.10642                  
  a5                   93.85276                  
  t4                  121.98471                  
  d7                    1.09146                  
  a6                  160.18296                  
  t5                 -120.00037                  
 
 NAtoms=      8 NQM=      8 NQMF=      0 NMic=      0 NMicF=      0 NTot=      8.
                    Isotopes and Nuclear Properties:
 (Nuclear quadrupole moments (NQMom) in fm**2, nuclear magnetic moments (NMagM)
  in nuclear magnetons)

  Atom         1           2           3           4           5           6           7           8
 IAtWgt=          12          12           1           1           1           1           1           1
 AtmWgt=  12.0000000  12.0000000   1.0078250   1.0078250   1.0078250   1.0078250   1.0078250   1.0078250
 NucSpn=           0           0           1           1           1           1           1           1
 AtZEff=   0.0000000   0.0000000   0.0000000   0.0000000   0.0000000   0.0000000   0.0000000   0.0000000
 NQMom=    0.0000000   0.0000000   0.0000000   0.0000000   0.0000000   0.0000000   0.0000000   0.0000000
 NMagM=    0.0000000   0.0000000   2.7928460   2.7928460   2.7928460   2.7928460   2.7928460   2.7928460
 Leave Link  101 at Wed May 26 19:11:50 2021, MaxMem=   13107200 cpu:       0.0
 (Enter /programs/64bit/g09/g09-gfortran/bin/l103.exe)

 GradGradGradGradGradGradGradGradGradGradGradGradGradGradGradGradGradGrad
 Berny optimization.
 Initialization pass.
                       ----------------------------
                       !    Initial Parameters    !
                       ! (Angstroms and Degrees)  !
 ----------------------                            ----------------------
 !      Name          Value   Derivative information (Atomic Units)     !
 ------------------------------------------------------------------------
 !       d1          1.6153   Frozen                                    !
 !       a1        155.2217   Frozen                                    !
 !       t1        102.5141   Frozen                                    !
 !       d2          1.1633   Frozen                                    !
 !       a2         92.1468   Frozen                                    !
 !       t2       -161.4118   Frozen                                    !
 !       d3          1.3587   Frozen                                    !
 !       d4          1.1026   Frozen                                    !
 !       a3         90.1382   Frozen                                    !
 !       d5          1.0866   Frozen                                    !
 !       a4         93.6996   Frozen                                    !
 !       t3        179.8602   Frozen                                    !
 !       d6          1.1064   Frozen                                    !
 !       a5         93.8528   Frozen                                    !
 !       t4        121.9847   Frozen                                    !
 !       d7          1.0915   Frozen                                    !
 !       a6        160.183    Frozen                                    !
 !       t5       -120.0004   Frozen                                    !
 ------------------------------------------------------------------------
 Trust Radius=3.00D-01 FncErr=1.00D-07 GrdErr=1.00D-07
 Number of steps in this run=   2 maximum allowed number of steps=   2.
 GradGradGradGradGradGradGradGradGradGradGradGradGradGradGradGradGradGrad

 Leave Link  103 at Wed May 26 19:11:50 2021, MaxMem=   13107200 cpu:       0.0
 (Enter /programs/64bit/g09/g09-gfortran/bin/l202.exe)
                          Input orientation:                          
 ---------------------------------------------------------------------
 Center     Atomic      Atomic             Coordinates (Angstroms)
 Number     Number       Type             X           Y           Z
 ---------------------------------------------------------------------
      1          6           0        0.000000    0.000000    0.000000
      2          6           0        0.000000    0.000000    1.615278
      3          1           0        0.487535    0.000000   -1.056174
      4          1           0       -0.294199   -1.325504   -0.050897
      5          1           0       -1.045044    0.351456   -0.002660
      6          1           0       -1.084314    0.002645    1.685389
      7          1           0        0.582451   -0.937753    1.689621
      8          1           0        0.185796    0.319998    2.642105
 ---------------------------------------------------------------------
                    Distance matrix (angstroms):
                    1          2          3          4          5
     1  C    0.000000
     2  C    1.615278   0.000000
     3  H    1.163268   2.715575   0.000000
     4  H    1.358714   2.149338   1.838111   0.000000
     5  H    1.102563   1.957897   1.892673   1.838013   0.000000
     6  H    2.004066   1.086581   3.160203   2.324425   1.724158
     7  H    2.018279   1.106416   2.903064   1.987025   2.678547
     8  H    2.667890   1.091464   3.724340   3.192230   2.917317
                    6          7          8
     6  H    0.000000
     7  H    1.913758   0.000000
     8  H    1.621480   1.626806   0.000000
 Symmetry turned off by external request.
 Stoichiometry    C2H6
 Framework group  C1[X(C2H6)]
 Deg. of freedom    18
 Full point group                 C1      NOp   1
 Rotational constants (GHZ):     88.2778916     18.1462594     17.4667352
 Leave Link  202 at Wed May 26 19:11:50 2021, MaxMem=   13107200 cpu:       0.0
 (Enter /programs/64bit/g09/g09-gfortran/bin/l301.exe)
 Standard basis: 6-31+G(d,p) (6D, 7F)
 Ernie: Thresh=  0.10000D-02 Tol=  0.10000D-05 Strict=F.
 Integral buffers will be    131072 words long.
 Raffenetti 2 integral format.
 Two-electron integral symmetry is turned off.
    68 basis functions,   106 primitive gaussians,    68 cartesian basis functions
     9 alpha electrons        9 beta electrons
       nuclear repulsion energy        40.6772283522 Hartrees.
 IExCor=  402 DFT=T Ex+Corr=B3LYP ExCW=0 ScaHFX=  0.200000
 ScaDFX=  0.800000  0.720000  1.000000  0.810000 ScalE2=  1.000000  1.000000
 IRadAn=      0 IRanWt=     -1 IRanGd=            0 ICorTp=0
 NAtoms=    8 NActive=    8 NUniq=    8 SFac= 7.50D-01 NAtFMM=   80 NAOKFM=F Big=F
 Leave Link  301 at Wed May 26 19:11:50 2021, MaxMem=   13107200 cpu:       0.0
 (Enter /programs/64bit/g09/g09-gfortran/bin/l302.exe)
 NPDir=0 NMtPBC=     1 NCelOv=     1 NCel=       1 NClECP=     1 NCelD=      1
         NCelK=      1 NCelE2=     1 NClLst=     1 CellRange=     0.0.
 One-electron integrals computed using PRISM.
 NBasis=    68 RedAO= T  NBF=    68
 NBsUse=    68 1.00D-06 NBFU=    68
 Precomputing XC quadrature grid using
 IXCGrd= 2 IRadAn=           0 IRanWt=          -1 IRanGd=           0 AccXCQ= 1.00D-10.
 NRdTot=     510 NPtTot=       65100 NUsed=       68787 NTot=       68819
 NSgBfM=    68    68    68    68    68 NAtAll=     8     8.
 Leave Link  302 at Wed May 26 19:11:50 2021, MaxMem=   13107200 cpu:       0.1
 (Enter /programs/64bit/g09/g09-gfortran/bin/l303.exe)
 DipDrv:  MaxL=1.
 Leave Link  303 at Wed May 26 19:11:50 2021, MaxMem=   13107200 cpu:       0.0
 (Enter /programs/64bit/g09/g09-gfortran/bin/l401.exe)
 Harris functional with IExCor=  402 diagonalized for initial guess.
 ExpMin= 4.38D-02 ExpMax= 3.05D+03 ExpMxC= 4.57D+02 IAcc=2 IRadAn=         0 AccDes= 0.00D+00
 HarFok:  IExCor=  402 AccDes= 0.00D+00 IRadAn=         0 IDoV= 1
 ScaDFX=  1.000000  1.000000  1.000000  1.000000
 FoFCou: FMM=F IPFlag=           0 FMFlag=      100000 FMFlg1=           0
         NFxFlg=           0 DoJE=T BraDBF=F KetDBF=T FulRan=T
         Omega=  0.000000  0.000000  1.000000  0.000000  0.000000 ICntrl=     500 IOpCl=  0
         NMat0=    1 NMatS0=    1 NMatT0=    0 NMatD0=    1 NMtDS0=    0 NMtDT0=    0
         I1Cent=           4 NGrid=           0.
 Symmetry not used in FoFCou.
 Harris En= -79.7229926188152    
 Leave Link  401 at Wed May 26 19:11:51 2021, MaxMem=   13107200 cpu:       0.7
 (Enter /programs/64bit/g09/g09-gfortran/bin/l502.exe)
 Closed shell SCF:
 Requested convergence on RMS density matrix=1.00D-08 within 128 cycles.
 Requested convergence on MAX density matrix=1.00D-06.
 Requested convergence on             energy=1.00D-06.
 No special actions if energy rises.
 Using DIIS extrapolation, IDIIS=  1040.
 Two-electron integral symmetry not used.
        68702 words used for storage of precomputed grid.
 Keep R1 ints in memory in canonical form, NReq=3743087.
 IEnd=      101552 IEndB=      101552 NGot=    13107200 MDV=    10273922
 LenX=    10273922 LenY=    10268857
 Symmetry not used in FoFDir.
 MinBra= 0 MaxBra= 2 Meth= 1.
 IRaf=       0 NMat=   1 IRICut=       1 DoRegI=T DoRafI=F ISym2E= 0 JSym2E=0.

 Cycle   1  Pass 1  IDiag  1:
 E= -79.5839263110354    
 DIIS: error= 3.43D-02 at cycle   1 NSaved=   1.
 NSaved= 1 IEnMin= 1 EnMin= -79.5839263110354     IErMin= 1 ErrMin= 3.43D-02
 ErrMax= 3.43D-02 EMaxC= 1.00D-01 BMatC= 9.08D-02 BMatP= 9.08D-02
 IDIUse=3 WtCom= 6.57D-01 WtEn= 3.43D-01
 Coeff-Com:  0.100D+01
 Coeff-En:   0.100D+01
 Coeff:      0.100D+01
 Gap=     0.307 Goal=   None    Shift=    0.000
 GapD=    0.307 DampG=1.000 DampE=0.500 DampFc=0.5000 IDamp=-1.
 Damping current iteration by 5.00D-01
 RMSDP=1.51D-02 MaxDP=2.00D-01              OVMax= 2.22D-01

 Cycle   2  Pass 1  IDiag  1:
 E= -79.6228193597284     Delta-E=       -0.038893048693 Rises=F Damp=T
 DIIS: error= 8.38D-03 at cycle   2 NSaved=   2.
 NSaved= 2 IEnMin= 2 EnMin= -79.6228193597284     IErMin= 2 ErrMin= 8.38D-03
 ErrMax= 8.38D-03 EMaxC= 1.00D-01 BMatC= 6.20D-03 BMatP= 9.08D-02
 IDIUse=3 WtCom= 9.16D-01 WtEn= 8.38D-02
 Coeff-Com:  0.152D+00 0.848D+00
 Coeff-En:   0.256D+00 0.744D+00
 Coeff:      0.161D+00 0.839D+00
 Gap=     0.275 Goal=   None    Shift=    0.000
 RMSDP=3.65D-03 MaxDP=7.47D-02 DE=-3.89D-02 OVMax= 1.30D-01

 Cycle   3  Pass 1  IDiag  1:
 E= -79.6885274367891     Delta-E=       -0.065708077061 Rises=F Damp=F
 DIIS: error= 2.51D-03 at cycle   3 NSaved=   3.
 NSaved= 3 IEnMin= 3 EnMin= -79.6885274367891     IErMin= 3 ErrMin= 2.51D-03
 ErrMax= 2.51D-03 EMaxC= 1.00D-01 BMatC= 4.92D-04 BMatP= 6.20D-03
 IDIUse=3 WtCom= 9.75D-01 WtEn= 2.51D-02
 Coeff-Com:  0.219D-01 0.198D+00 0.780D+00
 Coeff-En:   0.000D+00 0.000D+00 0.100D+01
 Coeff:      0.213D-01 0.193D+00 0.785D+00
 Gap=     0.269 Goal=   None    Shift=    0.000
 RMSDP=5.81D-04 MaxDP=7.10D-03 DE=-6.57D-02 OVMax= 1.12D-02

 Cycle   4  Pass 1  IDiag  1:
 E= -79.6888562130714     Delta-E=       -0.000328776282 Rises=F Damp=F
 DIIS: error= 1.41D-03 at cycle   4 NSaved=   4.
 NSaved= 4 IEnMin= 4 EnMin= -79.6888562130714     IErMin= 4 ErrMin= 1.41D-03
 ErrMax= 1.41D-03 EMaxC= 1.00D-01 BMatC= 1.88D-04 BMatP= 4.92D-04
 IDIUse=3 WtCom= 9.86D-01 WtEn= 1.41D-02
 Coeff-Com:  0.419D-02 0.456D-01 0.395D+00 0.555D+00
 Coeff-En:   0.000D+00 0.000D+00 0.245D+00 0.755D+00
 Coeff:      0.413D-02 0.450D-01 0.393D+00 0.558D+00
 Gap=     0.268 Goal=   None    Shift=    0.000
 RMSDP=2.14D-04 MaxDP=3.42D-03 DE=-3.29D-04 OVMax= 5.56D-03

 Cycle   5  Pass 1  IDiag  1:
 E= -79.6890377796823     Delta-E=       -0.000181566611 Rises=F Damp=F
 DIIS: error= 5.04D-04 at cycle   5 NSaved=   5.
 NSaved= 5 IEnMin= 5 EnMin= -79.6890377796823     IErMin= 5 ErrMin= 5.04D-04
 ErrMax= 5.04D-04 EMaxC= 1.00D-01 BMatC= 1.73D-05 BMatP= 1.88D-04
 IDIUse=3 WtCom= 9.95D-01 WtEn= 5.04D-03
 Coeff-Com:  0.289D-03-0.324D-02 0.950D-01 0.278D+00 0.630D+00
 Coeff-En:   0.000D+00 0.000D+00 0.000D+00 0.195D-01 0.981D+00
 Coeff:      0.288D-03-0.322D-02 0.945D-01 0.277D+00 0.632D+00
 Gap=     0.268 Goal=   None    Shift=    0.000
 RMSDP=8.27D-05 MaxDP=9.17D-04 DE=-1.82D-04 OVMax= 1.24D-03

 Cycle   6  Pass 1  IDiag  1:
 E= -79.6890558470677     Delta-E=       -0.000018067385 Rises=F Damp=F
 DIIS: error= 1.93D-05 at cycle   6 NSaved=   6.
 NSaved= 6 IEnMin= 6 EnMin= -79.6890558470677     IErMin= 6 ErrMin= 1.93D-05
 ErrMax= 1.93D-05 EMaxC= 1.00D-01 BMatC= 3.71D-08 BMatP= 1.73D-05
 IDIUse=1 WtCom= 1.00D+00 WtEn= 0.00D+00
 Coeff-Com:  0.218D-03-0.118D-02 0.144D-01 0.456D-01 0.120D+00 0.821D+00
 Coeff:      0.218D-03-0.118D-02 0.144D-01 0.456D-01 0.120D+00 0.821D+00
 Gap=     0.268 Goal=   None    Shift=    0.000
 RMSDP=4.67D-06 MaxDP=4.45D-05 DE=-1.81D-05 OVMax= 8.00D-05

 Cycle   7  Pass 1  IDiag  1:
 E= -79.6890558871242     Delta-E=       -0.000000040056 Rises=F Damp=F
 DIIS: error= 4.74D-06 at cycle   7 NSaved=   7.
 NSaved= 7 IEnMin= 7 EnMin= -79.6890558871242     IErMin= 7 ErrMin= 4.74D-06
 ErrMax= 4.74D-06 EMaxC= 1.00D-01 BMatC= 2.53D-09 BMatP= 3.71D-08
 IDIUse=1 WtCom= 1.00D+00 WtEn= 0.00D+00
 Coeff-Com:  0.829D-04-0.187D-03-0.152D-02-0.398D-02-0.424D-02 0.194D+00
 Coeff-Com:  0.816D+00
 Coeff:      0.829D-04-0.187D-03-0.152D-02-0.398D-02-0.424D-02 0.194D+00
 Coeff:      0.816D+00
 Gap=     0.268 Goal=   None    Shift=    0.000
 RMSDP=1.82D-06 MaxDP=2.00D-05 DE=-4.01D-08 OVMax= 2.44D-05

 Cycle   8  Pass 1  IDiag  1:
 E= -79.6890558903402     Delta-E=       -0.000000003216 Rises=F Damp=F
 DIIS: error= 6.05D-07 at cycle   8 NSaved=   8.
 NSaved= 8 IEnMin= 8 EnMin= -79.6890558903402     IErMin= 8 ErrMin= 6.05D-07
 ErrMax= 6.05D-07 EMaxC= 1.00D-01 BMatC= 3.95D-11 BMatP= 2.53D-09
 IDIUse=1 WtCom= 1.00D+00 WtEn= 0.00D+00
 Coeff-Com:  0.105D-04-0.127D-04-0.587D-03-0.171D-02-0.331D-02 0.204D-01
 Coeff-Com:  0.174D+00 0.811D+00
 Coeff:      0.105D-04-0.127D-04-0.587D-03-0.171D-02-0.331D-02 0.204D-01
 Coeff:      0.174D+00 0.811D+00
 Gap=     0.268 Goal=   None    Shift=    0.000
 RMSDP=2.12D-07 MaxDP=2.95D-06 DE=-3.22D-09 OVMax= 3.54D-06

 Cycle   9  Pass 1  IDiag  1:
 E= -79.6890558903996     Delta-E=       -0.000000000059 Rises=F Damp=F
 DIIS: error= 1.76D-07 at cycle   9 NSaved=   9.
 NSaved= 9 IEnMin= 9 EnMin= -79.6890558903996     IErMin= 9 ErrMin= 1.76D-07
 ErrMax= 1.76D-07 EMaxC= 1.00D-01 BMatC= 1.60D-12 BMatP= 3.95D-11
 IDIUse=1 WtCom= 1.00D+00 WtEn= 0.00D+00
 Coeff-Com: -0.148D-05 0.381D-05-0.511D-04-0.149D-03-0.418D-03-0.195D-02
 Coeff-Com:  0.493D-02 0.167D+00 0.831D+00
 Coeff:     -0.148D-05 0.381D-05-0.511D-04-0.149D-03-0.418D-03-0.195D-02
 Coeff:      0.493D-02 0.167D+00 0.831D+00
 Gap=     0.268 Goal=   None    Shift=    0.000
 RMSDP=4.10D-08 MaxDP=4.58D-07 DE=-5.94D-11 OVMax= 5.70D-07

 Cycle  10  Pass 1  IDiag  1:
 E= -79.6890558904019     Delta-E=       -0.000000000002 Rises=F Damp=F
 DIIS: error= 2.12D-08 at cycle  10 NSaved=  10.
 NSaved=10 IEnMin=10 EnMin= -79.6890558904019     IErMin=10 ErrMin= 2.12D-08
 ErrMax= 2.12D-08 EMaxC= 1.00D-01 BMatC= 4.77D-14 BMatP= 1.60D-12
 IDIUse=1 WtCom= 1.00D+00 WtEn= 0.00D+00
 Coeff-Com: -0.692D-06 0.110D-05-0.156D-05-0.478D-05-0.433D-04-0.876D-03
 Coeff-Com: -0.345D-02 0.231D-01 0.197D+00 0.785D+00
 Coeff:     -0.692D-06 0.110D-05-0.156D-05-0.478D-05-0.433D-04-0.876D-03
 Coeff:     -0.345D-02 0.231D-01 0.197D+00 0.785D+00
 Gap=     0.268 Goal=   None    Shift=    0.000
 RMSDP=6.67D-09 MaxDP=6.25D-08 DE=-2.27D-12 OVMax= 1.18D-07

 SCF Done:  E(RB3LYP) =  -79.6890558904     A.U. after   10 cycles
             Convg  =    0.6674D-08             -V/T =  2.0135
 KE= 7.862914270186D+01 PE=-2.644993658341D+02 EE= 6.550393888967D+01
 Leave Link  502 at Wed May 26 19:11:57 2021, MaxMem=   13107200 cpu:       6.6
 (Enter /programs/64bit/g09/g09-gfortran/bin/l601.exe)
 Copying SCF densities to generalized density rwf, IOpCl= 0 IROHF=0.

 **********************************************************************

            Population analysis using the SCF density.

 **********************************************************************

 Alpha  occ. eigenvalues --  -10.22801 -10.19847  -0.75792  -0.61863  -0.46704
 Alpha  occ. eigenvalues --   -0.43470  -0.35365  -0.33298  -0.27194
 Alpha virt. eigenvalues --   -0.00370   0.00594   0.04649   0.04925   0.06351
 Alpha virt. eigenvalues --    0.07453   0.08661   0.10098   0.11546   0.15512
 Alpha virt. eigenvalues --    0.19719   0.20885   0.22781   0.29826   0.34371
 Alpha virt. eigenvalues --    0.64606   0.64841   0.67462   0.69611   0.74101
 Alpha virt. eigenvalues --    0.76523   0.85677   0.88592   0.93216   0.96884
 Alpha virt. eigenvalues --    0.99385   1.04103   1.05135   1.26045   1.34223
 Alpha virt. eigenvalues --    1.42056   1.52459   1.65103   1.79562   1.92662
 Alpha virt. eigenvalues --    1.93705   1.98901   2.02285   2.13711   2.15337
 Alpha virt. eigenvalues --    2.20351   2.23535   2.33261   2.36387   2.49131
 Alpha virt. eigenvalues --    2.54366   2.61787   2.66907   2.71280   2.75804
 Alpha virt. eigenvalues --    2.86143   3.00193   3.21277   3.30204   3.35700
 Alpha virt. eigenvalues --    3.40959   3.70776   4.23408   4.76519
          Condensed to atoms (all electrons):
              1          2          3          4          5          6
     1  C    5.431549   0.038339   0.324548   0.473386   0.396476  -0.119206
     2  C    0.038339   5.286431   0.027522  -0.137183  -0.074497   0.469135
     3  H    0.324548   0.027522   0.534343  -0.040490  -0.021385   0.004052
     4  H    0.473386  -0.137183  -0.040490   0.684188  -0.037136  -0.008533
     5  H    0.396476  -0.074497  -0.021385  -0.037136   0.595152  -0.019108
     6  H   -0.119206   0.469135   0.004052  -0.008533  -0.019108   0.603982
     7  H   -0.132825   0.469259   0.002393  -0.032164   0.007728  -0.012276
     8  H    0.061008   0.312453  -0.000837   0.004439   0.000382  -0.054323
              7          8
     1  C   -0.132825   0.061008
     2  C    0.469259   0.312453
     3  H    0.002393  -0.000837
     4  H   -0.032164   0.004439
     5  H    0.007728   0.000382
     6  H   -0.012276  -0.054323
     7  H    0.595817  -0.048570
     8  H   -0.048570   0.563367
 Mulliken atomic charges:
              1
     1  C   -0.473273
     2  C   -0.391459
     3  H    0.169854
     4  H    0.093493
     5  H    0.152388
     6  H    0.136277
     7  H    0.150639
     8  H    0.162081
 Sum of Mulliken atomic charges =   0.00000
 Mulliken charges with hydrogens summed into heavy atoms:
              1
     1  C   -0.057538
     2  C    0.057538
 Sum of Mulliken charges with hydrogens summed into heavy atoms =   0.00000
 Electronic spatial extent (au):  <R**2>=            160.9728
 Charge=              0.0000 electrons
 Dipole moment (field-independent basis, Debye):
    X=             -0.2920    Y=             -0.2733    Z=              0.1309  Tot=              0.4208
 Quadrupole moment (field-independent basis, Debye-Ang):
   XX=            -15.7135   YY=            -16.9924   ZZ=            -14.3652
   XY=             -0.9366   XZ=             -0.7529   YZ=             -0.1131
 Traceless Quadrupole moment (field-independent basis, Debye-Ang):
   XX=             -0.0231   YY=             -1.3020   ZZ=              1.3252
   XY=             -0.9366   XZ=             -0.7529   YZ=             -0.1131
 Octapole moment (field-independent basis, Debye-Ang**2):
  XXX=              1.7081  YYY=              3.8721  ZZZ=            -34.4260  XYY=              1.1177
  XXY=              1.6424  XXZ=            -12.0769  XZZ=              1.0498  YZZ=              1.2551
  YYZ=            -13.5104  XYZ=             -1.1238
 Hexadecapole moment (field-independent basis, Debye-Ang**3):
 XXXX=            -31.6820 YYYY=            -36.5202 ZZZZ=           -152.7476 XXXY=             -0.7821
 XXXZ=              0.4546 YYYX=             -0.2843 YYYZ=              0.8000 ZZZX=              0.5012
 ZZZY=              2.2994 XXYY=            -11.7502 XXZZ=            -33.7820 YYZZ=            -37.7395
 XXYZ=              0.4392 YYXZ=              0.8638 ZZXY=             -1.8825
 N-N= 4.067722835220D+01 E-N=-2.644993655603D+02  KE= 7.862914270186D+01
 No NMR shielding tensors so no spin-rotation constants.
 Leave Link  601 at Wed May 26 19:11:58 2021, MaxMem=   13107200 cpu:       0.1
 (Enter /programs/64bit/g09/g09-gfortran/bin/l701.exe)
 Compute integral first derivatives.
 ... and contract with generalized density number  0.
 Leave Link  701 at Wed May 26 19:11:58 2021, MaxMem=   13107200 cpu:       0.1
 (Enter /programs/64bit/g09/g09-gfortran/bin/l702.exe)
 L702 exits ... SP integral derivatives will be done elsewhere.
 Leave Link  702 at Wed May 26 19:11:58 2021, MaxMem=   13107200 cpu:       0.0
 (Enter /programs/64bit/g09/g09-gfortran/bin/l703.exe)
 Compute integral first derivatives, UseDBF=F ICtDFT=           0.
 Integral derivatives from FoFDir, PRISM(SPDF).
 Calling FoFJK, ICntrl=      2127 FMM=F ISym2X=0 I1Cent= 0 IOpClX= 0 NMat=1 NMatS=1 NMatT=0.
 FoFCou: FMM=F IPFlag=           0 FMFlag=      100000 FMFlg1=         800
         NFxFlg=           0 DoJE=F BraDBF=F KetDBF=F FulRan=T
         Omega=  0.000000  0.000000  1.000000  0.000000  0.000000 ICntrl=    2127 IOpCl=  0
         NMat0=    1 NMatS0=    1 NMatT0=    0 NMatD0=    1 NMtDS0=    0 NMtDT0=    0
         I1Cent=           0 NGrid=           0.
 Symmetry not used in FoFCou.
 Leave Link  703 at Wed May 26 19:11:59 2021, MaxMem=   13107200 cpu:       1.5
 (Enter /programs/64bit/g09/g09-gfortran/bin/l716.exe)
 Dipole        =-1.14862544D-01-1.07510174D-01 5.14987746D-02
 -------------------------------------------------------------------
 Center     Atomic                   Forces (Hartrees/Bohr)
 Number     Number              X              Y              Z
 -------------------------------------------------------------------
      1        6          -0.059441335   -0.076761774   -0.023747298
      2        6           0.022383152   -0.046245662    0.001468705
      3        1           0.008226416    0.025479209    0.047771160
      4        1           0.014984248    0.072135236   -0.005000913
      5        1           0.010746822    0.007856054   -0.037838229
      6        1          -0.002583441   -0.026527704    0.010592059
      7        1          -0.024871607   -0.007289697    0.017599155
      8        1           0.030555744    0.051354337   -0.010844640
 -------------------------------------------------------------------
 Cartesian Forces:  Max     0.076761774 RMS     0.034269094
 -----------------------------------------------------------------------------------------------
                       Internal Coordinate Forces (Hartree/Bohr or radian)
  Cent   Atom   N1       Length/X         N2         Alpha/Y        N3         Beta/Z          J
 -----------------------------------------------------------------------------------------------
      1  C 
      2  C        1   0.018815(     1)
      3  H        1  -0.039925(     2)      2  -0.060431(     8)
      4  H        1  -0.073429(     3)      2   0.019917(     9)      3   0.002571(    14)     0
      5  H        1  -0.007591(     4)      2   0.078876(    10)      3   0.022652(    15)     0
      6  H        2   0.003197(     5)      1   0.021370(    11)      3   0.001825(    16)     0
      7  H        2  -0.005732(     6)      1   0.037687(    12)      6  -0.052098(    17)     0
      8  H        2   0.010055(     7)      1  -0.123531(    13)      6  -0.000447(    18)     0
 -----------------------------------------------------------------------------------------------
 Internal  Forces:  Max     0.123530608 RMS     0.046059147
 Force constants in Cartesian coordinates: 
                1             2             3             4             5 
      1  0.590072D+00
      2 -0.511813D-01  0.391841D+00
      3 -0.668961D-01  0.156873D-02  0.616928D+00
      4 -0.118762D+00 -0.145702D-02  0.164683D-01  0.689914D+00
      5 -0.517532D-02 -0.111405D+00  0.116723D-01 -0.856566D-01  0.559537D+00
      6 -0.651435D-02 -0.111818D-01 -0.227693D+00  0.267682D-01  0.471060D-01
      7 -0.128902D+00  0.540045D-02  0.438963D-01  0.244358D-01  0.274348D-03
      8  0.141938D-01 -0.773909D-01 -0.119282D-01 -0.368302D-02  0.140346D-01
      9  0.676851D-01  0.249288D-02 -0.255269D+00  0.112797D-01  0.126641D-03
     10 -0.505808D-01 -0.413735D-01  0.572695D-02  0.108516D-02 -0.122106D-03
     11 -0.243743D-01 -0.149825D+00 -0.557660D-02 -0.880140D-04  0.799456D-03
     12  0.558407D-02 -0.110461D-01 -0.473042D-01 -0.398041D-02 -0.201145D-01
     13 -0.314396D+00  0.829691D-01  0.804484D-03  0.114874D-02  0.168242D-02
     14  0.582503D-01 -0.872434D-01  0.426378D-02  0.323590D-02  0.506554D-02
     15 -0.637308D-02  0.698450D-02 -0.866627D-01 -0.237676D-01  0.831554D-02
     16  0.165149D-02 -0.322515D-04  0.000000D+00 -0.350116D+00  0.481859D-03
     17 -0.107265D-02  0.361497D-02  0.000000D+00 -0.178698D-01 -0.806538D-01
     18  0.255818D-01 -0.635159D-03  0.000000D+00  0.314684D-01 -0.278792D-02
     19  0.457434D-02  0.202939D-02  0.000000D+00 -0.140074D+00  0.973295D-01
     20  0.175194D-02  0.292851D-02  0.000000D+00  0.116397D+00 -0.267416D+00
     21 -0.137395D-01  0.210402D-01  0.000000D+00 -0.184161D-01  0.246663D-01
     22  0.163430D-01  0.364513D-02  0.000000D+00 -0.107632D+00 -0.881411D-02
     23  0.760755D-02  0.274796D-01  0.000000D+00 -0.108779D-01 -0.119962D+00
     24 -0.532793D-02 -0.922324D-02  0.000000D+00 -0.398205D-01 -0.689844D-01
                6             7             8             9            10 
      6  0.713217D+00
      7  0.000000D+00  0.104439D+00
      8  0.000000D+00 -0.317198D-02  0.526313D-01
      9  0.000000D+00 -0.789774D-01 -0.146420D-02  0.239075D+00
     10  0.000000D+00  0.811839D-03 -0.128200D-01  0.374749D-03  0.386589D-01
     11  0.000000D+00 -0.393189D-03  0.188660D-02 -0.181498D-03  0.270829D-01
     12  0.000000D+00  0.554716D-02  0.249710D-01  0.256060D-02 -0.721279D-02
     13  0.000000D+00 -0.784645D-03  0.340738D-02 -0.362196D-03  0.929788D-02
     14  0.000000D+00 -0.210963D-02  0.100441D-01 -0.973816D-03  0.276554D-01
     15  0.000000D+00  0.295339D-01 -0.115786D-01  0.136330D-01  0.111109D-02
     16  0.175075D-01  0.000000D+00  0.297174D-05  0.000000D+00  0.104172D-05
     17 -0.948358D-03  0.000000D+00  0.121834D-02  0.000000D+00  0.427078D-03
     18 -0.813066D-01  0.000000D+00  0.000000D+00  0.000000D+00  0.000000D+00
     19 -0.960017D-02  0.000000D+00 -0.101658D-02  0.000000D+00 -0.356354D-03
     20  0.139908D-01  0.000000D+00 -0.631410D-03  0.000000D+00 -0.221336D-03
     21 -0.781323D-01  0.000000D+00  0.000000D+00  0.000000D+00  0.000000D+00
     22 -0.281612D-01  0.000000D+00  0.308751D-02  0.000000D+00  0.108230D-02
     23 -0.489666D-01  0.000000D+00 -0.179266D-02  0.000000D+00 -0.628402D-03
     24 -0.326085D+00  0.000000D+00  0.000000D+00  0.000000D+00  0.000000D+00
               11            12            13            14            15 
     11  0.153191D+00
     12  0.600521D-02  0.447305D-01
     13 -0.206607D-02  0.619798D-04  0.305027D+00
     14 -0.614526D-02  0.184394D-03 -0.861628D-01  0.777736D-01
     15 -0.247109D-03  0.130172D-04 -0.504268D-03 -0.347436D-02  0.730167D-01
     16  0.000000D+00  0.000000D+00  0.000000D+00 -0.124551D-05  0.000000D+00
     17 -0.947909D-04  0.000000D+00 -0.171727D-03 -0.510626D-03  0.000000D+00
     18  0.000000D+00  0.000000D+00  0.000000D+00  0.000000D+00  0.000000D+00
     19  0.790936D-04  0.000000D+00  0.143289D-03  0.426066D-03  0.000000D+00
     20  0.491260D-04  0.000000D+00  0.889987D-04  0.264635D-03  0.000000D+00
     21  0.000000D+00  0.000000D+00  0.000000D+00  0.000000D+00  0.000000D+00
     22 -0.240220D-03  0.000000D+00 -0.435191D-03 -0.129403D-02  0.000000D+00
     23  0.139475D-03  0.000000D+00  0.252679D-03  0.751334D-03  0.000000D+00
     24  0.000000D+00  0.000000D+00  0.000000D+00  0.000000D+00  0.000000D+00
               16            17            18            19            20 
     16  0.350946D+00
     17 -0.390486D-03  0.498225D-01
     18 -0.179403D-01  0.536412D-02  0.744471D-01
     19 -0.166521D-03  0.314627D-01 -0.376224D-02  0.125861D+00
     20 -0.101333D-03  0.191971D-01 -0.229136D-02 -0.125598D+00  0.250867D+00
     21  0.264335D-04 -0.434864D-02  0.572858D-03  0.137067D-01 -0.119480D-01
     22 -0.231577D-02 -0.123850D-01 -0.353477D-01  0.100185D-01  0.768310D-02
     23  0.407168D-04  0.740634D-02  0.350318D-03 -0.471226D-02 -0.525840D-02
     24  0.406331D-03 -0.671226D-04  0.628670D-02 -0.344242D-03  0.248522D-03
               21            22            23            24 
     21  0.717276D-01
     22  0.184226D-01  0.829391D-01
     23 -0.294099D-01  0.831766D-02  0.912363D-01
     24  0.583183D-02  0.450863D-01  0.780263D-01  0.313967D+00
 Force constants in internal coordinates: 
                1             2             3             4             5 
      1  0.227693D+00
      2  0.000000D+00  0.275532D+00
      3  0.000000D+00  0.000000D+00  0.159432D+00
      4  0.000000D+00  0.000000D+00  0.000000D+00  0.334003D+00
      5  0.000000D+00  0.000000D+00  0.000000D+00  0.000000D+00  0.352107D+00
      6  0.000000D+00  0.000000D+00  0.000000D+00  0.000000D+00  0.000000D+00
      7  0.000000D+00  0.000000D+00  0.000000D+00  0.000000D+00  0.000000D+00
      8  0.000000D+00  0.000000D+00  0.000000D+00  0.000000D+00  0.000000D+00
      9  0.000000D+00  0.000000D+00  0.000000D+00  0.000000D+00  0.000000D+00
     10  0.000000D+00  0.000000D+00  0.000000D+00  0.000000D+00  0.000000D+00
     11  0.000000D+00  0.000000D+00  0.000000D+00  0.000000D+00  0.000000D+00
     12  0.000000D+00  0.000000D+00  0.000000D+00  0.000000D+00  0.000000D+00
     13  0.000000D+00  0.000000D+00  0.000000D+00  0.000000D+00  0.000000D+00
     14  0.000000D+00  0.000000D+00  0.000000D+00  0.000000D+00  0.000000D+00
     15  0.000000D+00  0.000000D+00  0.000000D+00  0.000000D+00  0.000000D+00
     16  0.000000D+00  0.000000D+00  0.000000D+00  0.000000D+00  0.000000D+00
     17  0.000000D+00  0.000000D+00  0.000000D+00  0.000000D+00  0.000000D+00
     18  0.000000D+00  0.000000D+00  0.000000D+00  0.000000D+00  0.000000D+00
                6             7             8             9            10 
      6  0.329824D+00
      7  0.000000D+00  0.346441D+00
      8  0.000000D+00  0.000000D+00  0.328514D+00
      9  0.000000D+00  0.000000D+00  0.345085D-01  0.293826D+00
     10  0.000000D+00  0.000000D+00  0.148987D+00  0.696871D-04  0.316970D+00
     11  0.000000D+00  0.000000D+00  0.000000D+00  0.000000D+00  0.000000D+00
     12  0.000000D+00  0.000000D+00  0.000000D+00  0.000000D+00  0.000000D+00
     13  0.000000D+00  0.000000D+00  0.000000D+00  0.000000D+00  0.000000D+00
     14  0.000000D+00  0.000000D+00  0.545275D-02 -0.549994D-01  0.608498D-02
     15  0.000000D+00  0.000000D+00  0.113488D-01 -0.104141D-02  0.149937D-01
     16  0.000000D+00  0.000000D+00  0.000000D+00  0.000000D+00  0.000000D+00
     17  0.000000D+00  0.000000D+00  0.000000D+00  0.000000D+00  0.000000D+00
     18  0.000000D+00  0.000000D+00  0.000000D+00  0.000000D+00  0.000000D+00
               11            12            13            14            15 
     11  0.308990D+00
     12  0.247009D-02  0.308443D+00
     13  0.787001D-01  0.743517D-01  0.271817D+00
     14  0.000000D+00  0.000000D+00  0.000000D+00  0.214474D+00
     15  0.000000D+00  0.000000D+00  0.000000D+00 -0.159780D+00  0.211844D+00
     16  0.289556D-02 -0.296946D-02 -0.424582D-03  0.690000D-02  0.690000D-02
     17 -0.189077D-01  0.233418D-01 -0.204718D-02  0.230000D-02  0.230000D-02
     18  0.442350D-01 -0.449837D-01  0.798181D-03  0.230000D-02  0.230000D-02
               16            17            18 
     16  0.583688D-01
     17  0.308538D-01  0.209206D+00
     18 -0.345143D-02 -0.208136D-01  0.380437D-01
 Leave Link  716 at Wed May 26 19:11:59 2021, MaxMem=   13107200 cpu:       0.0
 (Enter /programs/64bit/g09/g09-gfortran/bin/l103.exe)

 GradGradGradGradGradGradGradGradGradGradGradGradGradGradGradGradGradGrad
 Berny optimization.
 Search for a local minimum.
 Step number   1 out of a maximum of    2
 All quantities printed in internal units (Hartrees-Bohrs-Radians)
 Second derivative matrix not updated -- first step.
 The second derivative matrix:
                          d1        a1        t1        d2        a2
           d1           0.22769
           a1           0.00000   0.32851
           t1          -0.00000   0.00545   0.21447
           d2           0.00000   0.00000   0.00000   0.27553
           a2           0.00000   0.03451  -0.05500   0.00000   0.29383
           t2           0.00000   0.01135  -0.15978   0.00000  -0.00104
           d3          -0.00000   0.00000  -0.00000  -0.00000  -0.00000
           d4           0.00000   0.00000   0.00000  -0.00000  -0.00000
           a3          -0.00000   0.14899   0.00608   0.00000   0.00007
           d5          -0.00000   0.00000  -0.00000   0.00000  -0.00000
           a4          -0.00000   0.00000  -0.00000   0.00000   0.00000
           t3          -0.00000   0.00000   0.00690   0.00000   0.00000
           d6          -0.00000   0.00000  -0.00000   0.00000  -0.00000
           a5          -0.00000   0.00000   0.00000   0.00000   0.00000
           t4           0.00000   0.00000   0.00230   0.00000   0.00000
           d7          -0.00000   0.00000  -0.00000   0.00000   0.00000
           a6          -0.00000   0.00000   0.00000   0.00000  -0.00000
           t5          -0.00000   0.00000   0.00230   0.00000   0.00000
                          t2        d3        d4        a3        d5
           t2           0.21184
           d3           0.00000   0.15943
           d4          -0.00000   0.00000   0.33400
           a3           0.01499   0.00000   0.00000   0.31697
           d5          -0.00000   0.00000  -0.00000   0.00000   0.35211
           a4           0.00000  -0.00000   0.00000  -0.00000   0.00000
           t3           0.00690   0.00000   0.00000  -0.00000   0.00000
           d6          -0.00000   0.00000   0.00000  -0.00000   0.00000
           a5          -0.00000  -0.00000  -0.00000   0.00000  -0.00000
           t4           0.00230   0.00000  -0.00000  -0.00000  -0.00000
           d7          -0.00000  -0.00000   0.00000  -0.00000  -0.00000
           a6           0.00000   0.00000   0.00000  -0.00000   0.00000
           t5           0.00230   0.00000  -0.00000   0.00000   0.00000
                          a4        t3        d6        a5        t4
           a4           0.30899
           t3           0.00290   0.05837
           d6          -0.00000  -0.00000   0.32982
           a5           0.00247  -0.00297   0.00000   0.30844
           t4          -0.01891   0.03085  -0.00000   0.02334   0.20921
           d7           0.00000  -0.00000   0.00000   0.00000   0.00000
           a6           0.07870  -0.00042  -0.00000   0.07435  -0.00205
           t5           0.04424  -0.00345  -0.00000  -0.04498  -0.02081
                          d7        a6        t5
           d7           0.34644
           a6           0.00000   0.27182
           t5          -0.00000   0.00080   0.03804
     Eigenvalues --- 1000.000001000.000001000.000001000.000001000.00000
     Eigenvalues --- 1000.000001000.000001000.000001000.000001000.00000
     Eigenvalues --- 1000.000001000.000001000.000001000.000001000.00000
     Eigenvalues --- 1000.000001000.000001000.00000
 Angle between quadratic step and forces=  90.00 degrees.
 Linear search not attempted -- first point.
 Variable       Old X    -DE/DX   Delta X   Delta X   Delta X     New X
                                 (Linear)    (Quad)   (Total)
    d1        3.05243   0.01882   0.00000   0.00000   0.00000   3.05243
    a1        2.70913  -0.06043   0.00000   0.00000   0.00000   2.70913
    t1        1.78921   0.00257   0.00000   0.00000   0.00000   1.78921
    d2        2.19826  -0.03993   0.00000   0.00000   0.00000   2.19826
    a2        1.60826   0.01992   0.00000   0.00000   0.00000   1.60826
    t2       -2.81717   0.02265   0.00000   0.00000   0.00000  -2.81717
    d3        2.56760  -0.07343   0.00000   0.00000   0.00000   2.56760
    d4        2.08354  -0.00759   0.00000   0.00000   0.00000   2.08354
    a3        1.57321   0.07888   0.00000   0.00000   0.00000   1.57321
    d5        2.05334   0.00320   0.00000   0.00000   0.00000   2.05334
    a4        1.63537   0.02137   0.00000   0.00000   0.00000   1.63537
    t3        3.13915   0.00182   0.00000   0.00000   0.00000   3.13915
    d6        2.09082  -0.00573   0.00000   0.00000   0.00000   2.09082
    a5        1.63804   0.03769   0.00000   0.00000   0.00000   1.63804
    t4        2.12903  -0.05210   0.00000   0.00000   0.00000   2.12903
    d7        2.06257   0.01006   0.00000   0.00000   0.00000   2.06257
    a6        2.79572  -0.12353   0.00000   0.00000   0.00000   2.79572
    t5       -2.09440  -0.00045   0.00000   0.00000   0.00000  -2.09440
         Item               Value     Threshold  Converged?
 Maximum Force            0.000000     0.000450     YES
 RMS     Force            0.000000     0.000300     YES
 Maximum Displacement     0.000000     0.001800     YES
 RMS     Displacement     0.000000     0.001200     YES
 Predicted change in Energy=-0.000000D+00
 Optimization completed.
    -- Stationary point found.
                       ----------------------------
                       !   Optimized Parameters   !
                       ! (Angstroms and Degrees)  !
 ----------------------                            ----------------------
 !      Name          Value   Derivative information (Atomic Units)     !
 ------------------------------------------------------------------------
 !       d1          1.6153   -DE/DX =    0.0188                        !
 !       a1        155.2217   -DE/DX =   -0.0604                        !
 !       t1        102.5141   -DE/DX =    0.0026                        !
 !       d2          1.1633   -DE/DX =   -0.0399                        !
 !       a2         92.1468   -DE/DX =    0.0199                        !
 !       t2       -161.4118   -DE/DX =    0.0227                        !
 !       d3          1.3587   -DE/DX =   -0.0734                        !
 !       d4          1.1026   -DE/DX =   -0.0076                        !
 !       a3         90.1382   -DE/DX =    0.0789                        !
 !       d5          1.0866   -DE/DX =    0.0032                        !
 !       a4         93.6996   -DE/DX =    0.0214                        !
 !       t3        179.8602   -DE/DX =    0.0018                        !
 !       d6          1.1064   -DE/DX =   -0.0057                        !
 !       a5         93.8528   -DE/DX =    0.0377                        !
 !       t4        121.9847   -DE/DX =   -0.0521                        !
 !       d7          1.0915   -DE/DX =    0.0101                        !
 !       a6        160.183    -DE/DX =   -0.1235                        !
 !       t5       -120.0004   -DE/DX =   -0.0004                        !
 ------------------------------------------------------------------------
 GradGradGradGradGradGradGradGradGradGradGradGradGradGradGradGradGradGrad

 Leave Link  103 at Wed May 26 19:11:59 2021, MaxMem=   13107200 cpu:       0.0
 (Enter /programs/64bit/g09/g09-gfortran/bin/l9999.exe)
 1\1\GINC-MOLMOD\Force\RB3LYP\6-31+G(d,p)\C2H6\OSPITE\26-May-2021\1\\#p
  b3lyp/6-31+g(d,p) force nosym\\c2h6 molecule\\0,1\C\C,1,d1\H,1,d2,2,a
 1\H,1,d3,2,a2,3,t1,0\H,1,d4,2,a3,3,t2,0\H,2,d5,1,a4,3,t3,0\H,2,d6,1,a5
 ,6,t4,0\H,2,d7,1,a6,6,t5,0\\d1=1.61527807\a1=155.22172578\t1=102.51406
 714\d2=1.16326835\a2=92.14676911\t2=-161.41184198\d3=1.35871428\d4=1.1
 0256309\a3=90.13820547\d5=1.08658121\a4=93.69955345\t3=179.86024546\d6
 =1.10641604\a5=93.85275765\t4=121.98470558\d7=1.09146352\a6=160.182957
 28\t5=-120.00036694\\Version=EM64L-G09RevA.02\HF=-79.6890559\RMSD=6.67
 4e-09\RMSF=3.427e-02\Dipole=-0.1148625,-0.1075102,0.0514988\Quadrupole
 =-0.017189,-0.9680363,0.9852254,-0.6963319,-0.5597317,-0.0840795\PG=C0
 1 [X(C2H6)]\\@


 THE GREAT THING ABOUT BEING IMPERFECT IS THE JOY IT BRINGS OTHERS.
   -- SIGN OUTSIDE LAKE AGASSIZ JR. HIGH SCHOOL, FARGO, N.D.
 Job cpu time:  0 days  0 hours  0 minutes  9.2 seconds.
 File lengths (MBytes):  RWF=      5 Int=      0 D2E=      0 Chk=      1 Scr=      1
 Normal termination of Gaussian 09 at Wed May 26 19:11:59 2021.
