 Entering Gaussian System, Link 0=g09
 Input=c2h6_021.com
 Output=c2h6_021.log
 Initial command:
 /programs/64bit/g09/g09-gfortran/bin/l1.exe /data/scratch/Gau-6380.inp -scrdir=/data/scratch/
 Entering Link 1 = /programs/64bit/g09/g09-gfortran/bin/l1.exe PID=      6381.
  
 Copyright (c) 1988,1990,1992,1993,1995,1998,2003,2009, Gaussian, Inc.
                  All Rights Reserved.
  
 This is part of the Gaussian(R) 09 program.  It is based on
 the Gaussian(R) 03 system (copyright 2003, Gaussian, Inc.),
 the Gaussian(R) 98 system (copyright 1998, Gaussian, Inc.),
 the Gaussian(R) 94 system (copyright 1995, Gaussian, Inc.),
 the Gaussian 92(TM) system (copyright 1992, Gaussian, Inc.),
 the Gaussian 90(TM) system (copyright 1990, Gaussian, Inc.),
 the Gaussian 88(TM) system (copyright 1988, Gaussian, Inc.),
 the Gaussian 86(TM) system (copyright 1986, Carnegie Mellon
 University), and the Gaussian 82(TM) system (copyright 1983,
 Carnegie Mellon University). Gaussian is a federally registered
 trademark of Gaussian, Inc.
  
 This software contains proprietary and confidential information,
 including trade secrets, belonging to Gaussian, Inc.
  
 This software is provided under written license and may be
 used, copied, transmitted, or stored only in accord with that
 written license.
  
 The following legend is applicable only to US Government
 contracts under FAR:
  
                    RESTRICTED RIGHTS LEGEND
  
 Use, reproduction and disclosure by the US Government is
 subject to restrictions as set forth in subparagraphs (a)
 and (c) of the Commercial Computer Software - Restricted
 Rights clause in FAR 52.227-19.
  
 Gaussian, Inc.
 340 Quinnipiac St., Bldg. 40, Wallingford CT 06492
  
  
 ---------------------------------------------------------------
 Warning -- This program may not be used in any manner that
 competes with the business of Gaussian, Inc. or will provide
 assistance to any competitor of Gaussian, Inc.  The licensee
 of this program is prohibited from giving any competitor of
 Gaussian, Inc. access to this program.  By using this program,
 the user acknowledges that Gaussian, Inc. is engaged in the
 business of creating and licensing software in the field of
 computational chemistry and represents and warrants to the
 licensee that it is not a competitor of Gaussian, Inc. and that
 it will not use this program in any manner prohibited above.
 ---------------------------------------------------------------
  

 Cite this work as:
 Gaussian 09, Revision A.02,
 M. J. Frisch, G. W. Trucks, H. B. Schlegel, G. E. Scuseria, 
 M. A. Robb, J. R. Cheeseman, G. Scalmani, V. Barone, B. Mennucci, 
 G. A. Petersson, H. Nakatsuji, M. Caricato, X. Li, H. P. Hratchian, 
 A. F. Izmaylov, J. Bloino, G. Zheng, J. L. Sonnenberg, M. Hada, 
 M. Ehara, K. Toyota, R. Fukuda, J. Hasegawa, M. Ishida, T. Nakajima, 
 Y. Honda, O. Kitao, H. Nakai, T. Vreven, J. A. Montgomery, Jr., 
 J. E. Peralta, F. Ogliaro, M. Bearpark, J. J. Heyd, E. Brothers, 
 K. N. Kudin, V. N. Staroverov, R. Kobayashi, J. Normand, 
 K. Raghavachari, A. Rendell, J. C. Burant, S. S. Iyengar, J. Tomasi, 
 M. Cossi, N. Rega, J. M. Millam, M. Klene, J. E. Knox, J. B. Cross, 
 V. Bakken, C. Adamo, J. Jaramillo, R. Gomperts, R. E. Stratmann, 
 O. Yazyev, A. J. Austin, R. Cammi, C. Pomelli, J. W. Ochterski, 
 R. L. Martin, K. Morokuma, V. G. Zakrzewski, G. A. Voth, 
 P. Salvador, J. J. Dannenberg, S. Dapprich, A. D. Daniels, 
 O. Farkas, J. B. Foresman, J. V. Ortiz, J. Cioslowski, 
 and D. J. Fox, Gaussian, Inc., Wallingford CT, 2009.
 
 ******************************************
 Gaussian 09:  EM64L-G09RevA.02 11-Jun-2009
                26-May-2021 
 ******************************************
 %chk=c2h6_021.chk
 %mem=100MB
 --------------------------------
 #p b3lyp/6-31+g(d,p) force nosym
 --------------------------------
 1/10=7,30=1,38=1/1,3;
 2/12=2,15=1,17=6,18=5,40=1/2;
 3/5=1,6=6,7=111,11=2,16=1,25=1,30=1,71=1,74=-5/1,2,3;
 4//1;
 5/5=2,38=5/2;
 6/7=2,8=2,9=2,10=2,28=1/1;
 7/29=1,30=1/1,2,3,16;
 1/10=7,30=1/3;
 99//99;
 Leave Link    1 at Wed May 26 19:11:18 2021, MaxMem=   13107200 cpu:       0.0
 (Enter /programs/64bit/g09/g09-gfortran/bin/l101.exe)
 -------------
 c2h6 molecule
 -------------
 Symbolic Z-matrix:
 Charge =  0 Multiplicity = 1
 C1
 C2                   1    d1
 H3                   1    d2       2    a1
 H4                   1    d3       2    a2       3    t1       0
 H5                   1    d4       2    a3       3    t2       0
 H6                   2    d5       1    a4       3    t3       0
 H7                   2    d6       1    a5       6    t4       0
 H8                   2    d7       1    a6       6    t5       0
       Variables:
       Constants:
  d1                    1.47602                  
  a1                  174.74791                  
  t1                  116.8696                   
  d2                    1.14477                  
  a2                  106.80625                  
  t2                 -175.85155                  
  d3                    1.29487                  
  d4                    1.12833                  
  a3                  105.61268                  
  d5                    1.10861                  
  a4                  106.25561                  
  t3                  179.9753                   
  d6                    1.14975                  
  a5                  106.28127                  
  t4                  120.37245                  
  d7                    1.03563                  
  a6                  175.65389                  
  t5                 -120.00003                  
 
 NAtoms=      8 NQM=      8 NQMF=      0 NMic=      0 NMicF=      0 NTot=      8.
                    Isotopes and Nuclear Properties:
 (Nuclear quadrupole moments (NQMom) in fm**2, nuclear magnetic moments (NMagM)
  in nuclear magnetons)

  Atom         1           2           3           4           5           6           7           8
 IAtWgt=          12          12           1           1           1           1           1           1
 AtmWgt=  12.0000000  12.0000000   1.0078250   1.0078250   1.0078250   1.0078250   1.0078250   1.0078250
 NucSpn=           0           0           1           1           1           1           1           1
 AtZEff=   0.0000000   0.0000000   0.0000000   0.0000000   0.0000000   0.0000000   0.0000000   0.0000000
 NQMom=    0.0000000   0.0000000   0.0000000   0.0000000   0.0000000   0.0000000   0.0000000   0.0000000
 NMagM=    0.0000000   0.0000000   2.7928460   2.7928460   2.7928460   2.7928460   2.7928460   2.7928460
 Leave Link  101 at Wed May 26 19:11:18 2021, MaxMem=   13107200 cpu:       0.0
 (Enter /programs/64bit/g09/g09-gfortran/bin/l103.exe)

 GradGradGradGradGradGradGradGradGradGradGradGradGradGradGradGradGradGrad
 Berny optimization.
 Initialization pass.
                       ----------------------------
                       !    Initial Parameters    !
                       ! (Angstroms and Degrees)  !
 ----------------------                            ----------------------
 !      Name          Value   Derivative information (Atomic Units)     !
 ------------------------------------------------------------------------
 !       d1          1.476    Frozen                                    !
 !       a1        174.7479   Frozen                                    !
 !       t1        116.8696   Frozen                                    !
 !       d2          1.1448   Frozen                                    !
 !       a2        106.8063   Frozen                                    !
 !       t2       -175.8515   Frozen                                    !
 !       d3          1.2949   Frozen                                    !
 !       d4          1.1283   Frozen                                    !
 !       a3        105.6127   Frozen                                    !
 !       d5          1.1086   Frozen                                    !
 !       a4        106.2556   Frozen                                    !
 !       t3        179.9753   Frozen                                    !
 !       d6          1.1497   Frozen                                    !
 !       a5        106.2813   Frozen                                    !
 !       t4        120.3724   Frozen                                    !
 !       d7          1.0356   Frozen                                    !
 !       a6        175.6539   Frozen                                    !
 !       t5       -120.0      Frozen                                    !
 ------------------------------------------------------------------------
 Trust Radius=3.00D-01 FncErr=1.00D-07 GrdErr=1.00D-07
 Number of steps in this run=   2 maximum allowed number of steps=   2.
 GradGradGradGradGradGradGradGradGradGradGradGradGradGradGradGradGradGrad

 Leave Link  103 at Wed May 26 19:11:18 2021, MaxMem=   13107200 cpu:       0.0
 (Enter /programs/64bit/g09/g09-gfortran/bin/l202.exe)
                          Input orientation:                          
 ---------------------------------------------------------------------
 Center     Atomic      Atomic             Coordinates (Angstroms)
 Number     Number       Type             X           Y           Z
 ---------------------------------------------------------------------
      1          6           0        0.000000    0.000000    0.000000
      2          6           0        0.000000    0.000000    1.476019
      3          1           0        0.104790    0.000000   -1.139963
      4          1           0       -0.560236   -1.105740   -0.374395
      5          1           0       -1.083854    0.078613   -0.303672
      6          1           0       -1.064294    0.000459    1.786345
      7          1           0        0.557610   -0.952412    1.798354
      8          1           0        0.039270    0.067950    2.508670
 ---------------------------------------------------------------------
                    Distance matrix (angstroms):
                    1          2          3          4          5
     1  C    0.000000
     2  C    1.476019   0.000000
     3  H    1.144770   2.618080   0.000000
     4  H    1.294873   2.227230   1.500338   0.000000
     5  H    1.128333   2.085238   1.455485   1.296869   0.000000
     6  H    2.079363   1.108613   3.151196   2.479223   2.091569
     7  H    2.109999   1.149747   3.121833   2.448249   2.859358
     8  H    2.509897   1.035629   3.649854   3.170018   3.028330
                    6          7          8
     6  H    0.000000
     7  H    1.881138   0.000000
     8  H    1.320667   1.346983   0.000000
 Symmetry turned off by external request.
 Stoichiometry    C2H6
 Framework group  C1[X(C2H6)]
 Deg. of freedom    18
 Full point group                 C1      NOp   1
 Rotational constants (GHZ):    105.1353661     19.1199689     18.5628383
 Leave Link  202 at Wed May 26 19:11:18 2021, MaxMem=   13107200 cpu:       0.0
 (Enter /programs/64bit/g09/g09-gfortran/bin/l301.exe)
 Standard basis: 6-31+G(d,p) (6D, 7F)
 Ernie: Thresh=  0.10000D-02 Tol=  0.10000D-05 Strict=F.
 Integral buffers will be    131072 words long.
 Raffenetti 2 integral format.
 Two-electron integral symmetry is turned off.
    68 basis functions,   106 primitive gaussians,    68 cartesian basis functions
     9 alpha electrons        9 beta electrons
       nuclear repulsion energy        41.9860823091 Hartrees.
 IExCor=  402 DFT=T Ex+Corr=B3LYP ExCW=0 ScaHFX=  0.200000
 ScaDFX=  0.800000  0.720000  1.000000  0.810000 ScalE2=  1.000000  1.000000
 IRadAn=      0 IRanWt=     -1 IRanGd=            0 ICorTp=0
 NAtoms=    8 NActive=    8 NUniq=    8 SFac= 7.50D-01 NAtFMM=   80 NAOKFM=F Big=F
 Leave Link  301 at Wed May 26 19:11:18 2021, MaxMem=   13107200 cpu:       0.0
 (Enter /programs/64bit/g09/g09-gfortran/bin/l302.exe)
 NPDir=0 NMtPBC=     1 NCelOv=     1 NCel=       1 NClECP=     1 NCelD=      1
         NCelK=      1 NCelE2=     1 NClLst=     1 CellRange=     0.0.
 One-electron integrals computed using PRISM.
 NBasis=    68 RedAO= T  NBF=    68
 NBsUse=    68 1.00D-06 NBFU=    68
 Precomputing XC quadrature grid using
 IXCGrd= 2 IRadAn=           0 IRanWt=          -1 IRanGd=           0 AccXCQ= 1.00D-10.
 NRdTot=     510 NPtTot=       65100 NUsed=       68787 NTot=       68819
 NSgBfM=    68    68    68    68    68 NAtAll=     8     8.
 Leave Link  302 at Wed May 26 19:11:18 2021, MaxMem=   13107200 cpu:       0.1
 (Enter /programs/64bit/g09/g09-gfortran/bin/l303.exe)
 DipDrv:  MaxL=1.
 Leave Link  303 at Wed May 26 19:11:18 2021, MaxMem=   13107200 cpu:       0.0
 (Enter /programs/64bit/g09/g09-gfortran/bin/l401.exe)
 Harris functional with IExCor=  402 diagonalized for initial guess.
 ExpMin= 4.38D-02 ExpMax= 3.05D+03 ExpMxC= 4.57D+02 IAcc=2 IRadAn=         0 AccDes= 0.00D+00
 HarFok:  IExCor=  402 AccDes= 0.00D+00 IRadAn=         0 IDoV= 1
 ScaDFX=  1.000000  1.000000  1.000000  1.000000
 FoFCou: FMM=F IPFlag=           0 FMFlag=      100000 FMFlg1=           0
         NFxFlg=           0 DoJE=T BraDBF=F KetDBF=T FulRan=T
         Omega=  0.000000  0.000000  1.000000  0.000000  0.000000 ICntrl=     500 IOpCl=  0
         NMat0=    1 NMatS0=    1 NMatT0=    0 NMatD0=    1 NMtDS0=    0 NMtDT0=    0
         I1Cent=           4 NGrid=           0.
 Symmetry not used in FoFCou.
 Harris En= -79.6328969910067    
 Leave Link  401 at Wed May 26 19:11:19 2021, MaxMem=   13107200 cpu:       0.7
 (Enter /programs/64bit/g09/g09-gfortran/bin/l502.exe)
 Closed shell SCF:
 Requested convergence on RMS density matrix=1.00D-08 within 128 cycles.
 Requested convergence on MAX density matrix=1.00D-06.
 Requested convergence on             energy=1.00D-06.
 No special actions if energy rises.
 Using DIIS extrapolation, IDIIS=  1040.
 Two-electron integral symmetry not used.
        68702 words used for storage of precomputed grid.
 Keep R1 ints in memory in canonical form, NReq=3743087.
 IEnd=      101552 IEndB=      101552 NGot=    13107200 MDV=    10273922
 LenX=    10273922 LenY=    10268857
 Symmetry not used in FoFDir.
 MinBra= 0 MaxBra= 2 Meth= 1.
 IRaf=       0 NMat=   1 IRICut=       1 DoRegI=T DoRafI=F ISym2E= 0 JSym2E=0.

 Cycle   1  Pass 1  IDiag  1:
 E= -79.4550399906854    
 DIIS: error= 3.73D-02 at cycle   1 NSaved=   1.
 NSaved= 1 IEnMin= 1 EnMin= -79.4550399906854     IErMin= 1 ErrMin= 3.73D-02
 ErrMax= 3.73D-02 EMaxC= 1.00D-01 BMatC= 1.18D-01 BMatP= 1.18D-01
 IDIUse=3 WtCom= 6.27D-01 WtEn= 3.73D-01
 Coeff-Com:  0.100D+01
 Coeff-En:   0.100D+01
 Coeff:      0.100D+01
 Gap=     0.219 Goal=   None    Shift=    0.000
 GapD=    0.219 DampG=1.000 DampE=0.500 DampFc=0.5000 IDamp=-1.
 Damping current iteration by 5.00D-01
 RMSDP=3.12D-02 MaxDP=6.30D-01              OVMax= 2.78D-01

 Cycle   2  Pass 1  IDiag  1:
 E= -79.4935474725832     Delta-E=       -0.038507481898 Rises=F Damp=T
 DIIS: error= 1.24D-02 at cycle   2 NSaved=   2.
 NSaved= 2 IEnMin= 2 EnMin= -79.4935474725832     IErMin= 2 ErrMin= 1.24D-02
 ErrMax= 1.24D-02 EMaxC= 1.00D-01 BMatC= 1.18D-02 BMatP= 1.18D-01
 IDIUse=3 WtCom= 8.76D-01 WtEn= 1.24D-01
 Coeff-Com:  0.202D+00 0.798D+00
 Coeff-En:   0.341D+00 0.659D+00
 Coeff:      0.220D+00 0.780D+00
 Gap=     0.225 Goal=   None    Shift=    0.000
 RMSDP=1.18D-02 MaxDP=2.98D-01 DE=-3.85D-02 OVMax= 1.69D-01

 Cycle   3  Pass 1  IDiag  1:
 E= -79.5855557632638     Delta-E=       -0.092008290681 Rises=F Damp=F
 DIIS: error= 4.24D-03 at cycle   3 NSaved=   3.
 NSaved= 3 IEnMin= 3 EnMin= -79.5855557632638     IErMin= 3 ErrMin= 4.24D-03
 ErrMax= 4.24D-03 EMaxC= 1.00D-01 BMatC= 1.15D-03 BMatP= 1.18D-02
 IDIUse=3 WtCom= 9.58D-01 WtEn= 4.24D-02
 Coeff-Com:  0.481D-01 0.250D+00 0.702D+00
 Coeff-En:   0.000D+00 0.000D+00 0.100D+01
 Coeff:      0.460D-01 0.240D+00 0.714D+00
 Gap=     0.225 Goal=   None    Shift=    0.000
 RMSDP=1.15D-03 MaxDP=1.51D-02 DE=-9.20D-02 OVMax= 1.65D-02

 Cycle   4  Pass 1  IDiag  1:
 E= -79.5865759546698     Delta-E=       -0.001020191406 Rises=F Damp=F
 DIIS: error= 1.36D-03 at cycle   4 NSaved=   4.
 NSaved= 4 IEnMin= 4 EnMin= -79.5865759546698     IErMin= 4 ErrMin= 1.36D-03
 ErrMax= 1.36D-03 EMaxC= 1.00D-01 BMatC= 2.33D-04 BMatP= 1.15D-03
 IDIUse=3 WtCom= 9.86D-01 WtEn= 1.36D-02
 Coeff-Com:  0.935D-02 0.494D-01 0.328D+00 0.614D+00
 Coeff-En:   0.000D+00 0.000D+00 0.884D-01 0.912D+00
 Coeff:      0.922D-02 0.487D-01 0.324D+00 0.618D+00
 Gap=     0.224 Goal=   None    Shift=    0.000
 RMSDP=2.62D-04 MaxDP=3.95D-03 DE=-1.02D-03 OVMax= 5.65D-03

 Cycle   5  Pass 1  IDiag  1:
 E= -79.5867983062129     Delta-E=       -0.000222351543 Rises=F Damp=F
 DIIS: error= 4.15D-04 at cycle   5 NSaved=   5.
 NSaved= 5 IEnMin= 5 EnMin= -79.5867983062129     IErMin= 5 ErrMin= 4.15D-04
 ErrMax= 4.15D-04 EMaxC= 1.00D-01 BMatC= 2.03D-05 BMatP= 2.33D-04
 IDIUse=3 WtCom= 9.96D-01 WtEn= 4.15D-03
 Coeff-Com:  0.275D-03-0.433D-02 0.754D-01 0.285D+00 0.644D+00
 Coeff-En:   0.000D+00 0.000D+00 0.000D+00 0.000D+00 0.100D+01
 Coeff:      0.274D-03-0.431D-02 0.751D-01 0.284D+00 0.645D+00
 Gap=     0.225 Goal=   None    Shift=    0.000
 RMSDP=1.59D-04 MaxDP=2.50D-03 DE=-2.22D-04 OVMax= 1.43D-03

 Cycle   6  Pass 1  IDiag  1:
 E= -79.5868186103481     Delta-E=       -0.000020304135 Rises=F Damp=F
 DIIS: error= 4.55D-05 at cycle   6 NSaved=   6.
 NSaved= 6 IEnMin= 6 EnMin= -79.5868186103481     IErMin= 6 ErrMin= 4.55D-05
 ErrMax= 4.55D-05 EMaxC= 1.00D-01 BMatC= 1.87D-07 BMatP= 2.03D-05
 IDIUse=1 WtCom= 1.00D+00 WtEn= 0.00D+00
 Coeff-Com:  0.327D-03-0.200D-02 0.168D-01 0.704D-01 0.188D+00 0.727D+00
 Coeff:      0.327D-03-0.200D-02 0.168D-01 0.704D-01 0.188D+00 0.727D+00
 Gap=     0.225 Goal=   None    Shift=    0.000
 RMSDP=1.37D-05 MaxDP=1.55D-04 DE=-2.03D-05 OVMax= 1.63D-04

 Cycle   7  Pass 1  IDiag  1:
 E= -79.5868188051728     Delta-E=       -0.000000194825 Rises=F Damp=F
 DIIS: error= 7.58D-06 at cycle   7 NSaved=   7.
 NSaved= 7 IEnMin= 7 EnMin= -79.5868188051728     IErMin= 7 ErrMin= 7.58D-06
 ErrMax= 7.58D-06 EMaxC= 1.00D-01 BMatC= 6.78D-09 BMatP= 1.87D-07
 IDIUse=1 WtCom= 1.00D+00 WtEn= 0.00D+00
 Coeff-Com:  0.178D-03-0.313D-03 0.580D-03 0.274D-02 0.124D-01 0.146D+00
 Coeff-Com:  0.839D+00
 Coeff:      0.178D-03-0.313D-03 0.580D-03 0.274D-02 0.124D-01 0.146D+00
 Coeff:      0.839D+00
 Gap=     0.225 Goal=   None    Shift=    0.000
 RMSDP=4.45D-06 MaxDP=6.95D-05 DE=-1.95D-07 OVMax= 4.24D-05

 Cycle   8  Pass 1  IDiag  1:
 E= -79.5868188139016     Delta-E=       -0.000000008729 Rises=F Damp=F
 DIIS: error= 1.09D-06 at cycle   8 NSaved=   8.
 NSaved= 8 IEnMin= 8 EnMin= -79.5868188139016     IErMin= 8 ErrMin= 1.09D-06
 ErrMax= 1.09D-06 EMaxC= 1.00D-01 BMatC= 9.27D-11 BMatP= 6.78D-09
 IDIUse=1 WtCom= 1.00D+00 WtEn= 0.00D+00
 Coeff-Com:  0.292D-04-0.307D-04-0.284D-03-0.999D-03-0.170D-02 0.123D-01
 Coeff-Com:  0.174D+00 0.816D+00
 Coeff:      0.292D-04-0.307D-04-0.284D-03-0.999D-03-0.170D-02 0.123D-01
 Coeff:      0.174D+00 0.816D+00
 Gap=     0.225 Goal=   None    Shift=    0.000
 RMSDP=7.04D-07 MaxDP=8.67D-06 DE=-8.73D-09 OVMax= 5.66D-06

 Cycle   9  Pass 1  IDiag  1:
 E= -79.5868188140145     Delta-E=       -0.000000000113 Rises=F Damp=F
 DIIS: error= 2.97D-07 at cycle   9 NSaved=   9.
 NSaved= 9 IEnMin= 9 EnMin= -79.5868188140145     IErMin= 9 ErrMin= 2.97D-07
 ErrMax= 2.97D-07 EMaxC= 1.00D-01 BMatC= 5.70D-12 BMatP= 9.27D-11
 IDIUse=1 WtCom= 1.00D+00 WtEn= 0.00D+00
 Coeff-Com: -0.292D-05 0.419D-05-0.671D-04-0.239D-03-0.687D-03-0.325D-02
 Coeff-Com:  0.218D-02 0.200D+00 0.802D+00
 Coeff:     -0.292D-05 0.419D-05-0.671D-04-0.239D-03-0.687D-03-0.325D-02
 Coeff:      0.218D-02 0.200D+00 0.802D+00
 Gap=     0.225 Goal=   None    Shift=    0.000
 RMSDP=1.57D-07 MaxDP=1.72D-06 DE=-1.13D-10 OVMax= 1.60D-06

 Cycle  10  Pass 1  IDiag  1:
 E= -79.5868188140224     Delta-E=       -0.000000000008 Rises=F Damp=F
 DIIS: error= 4.57D-08 at cycle  10 NSaved=  10.
 NSaved=10 IEnMin=10 EnMin= -79.5868188140224     IErMin=10 ErrMin= 4.57D-08
 ErrMax= 4.57D-08 EMaxC= 1.00D-01 BMatC= 1.33D-13 BMatP= 5.70D-12
 IDIUse=1 WtCom= 1.00D+00 WtEn= 0.00D+00
 Coeff-Com: -0.129D-05 0.158D-05-0.939D-05-0.398D-04-0.131D-03-0.905D-03
 Coeff-Com: -0.298D-02 0.201D-01 0.180D+00 0.804D+00
 Coeff:     -0.129D-05 0.158D-05-0.939D-05-0.398D-04-0.131D-03-0.905D-03
 Coeff:     -0.298D-02 0.201D-01 0.180D+00 0.804D+00
 Gap=     0.225 Goal=   None    Shift=    0.000
 RMSDP=1.66D-08 MaxDP=2.20D-07 DE=-7.80D-12 OVMax= 2.11D-07

 Cycle  11  Pass 1  IDiag  1:
 E= -79.5868188140230     Delta-E=       -0.000000000001 Rises=F Damp=F
 DIIS: error= 7.72D-09 at cycle  11 NSaved=  11.
 NSaved=11 IEnMin=11 EnMin= -79.5868188140230     IErMin=11 ErrMin= 7.72D-09
 ErrMax= 7.72D-09 EMaxC= 1.00D-01 BMatC= 4.65D-15 BMatP= 1.33D-13
 IDIUse=1 WtCom= 1.00D+00 WtEn= 0.00D+00
 Coeff-Com: -0.123D-06 0.182D-06 0.103D-05 0.562D-06-0.127D-05-0.413D-04
 Coeff-Com: -0.615D-03-0.625D-02 0.212D-02 0.152D+00 0.852D+00
 Coeff:     -0.123D-06 0.182D-06 0.103D-05 0.562D-06-0.127D-05-0.413D-04
 Coeff:     -0.615D-03-0.625D-02 0.212D-02 0.152D+00 0.852D+00
 Gap=     0.225 Goal=   None    Shift=    0.000
 RMSDP=3.40D-09 MaxDP=4.58D-08 DE=-6.82D-13 OVMax= 6.24D-08

 SCF Done:  E(RB3LYP) =  -79.5868188140     A.U. after   11 cycles
             Convg  =    0.3402D-08             -V/T =  2.0106
 KE= 7.874931133804D+01 PE=-2.668883238895D+02 EE= 6.656611142843D+01
 Leave Link  502 at Wed May 26 19:11:27 2021, MaxMem=   13107200 cpu:       7.9
 (Enter /programs/64bit/g09/g09-gfortran/bin/l601.exe)
 Copying SCF densities to generalized density rwf, IOpCl= 0 IROHF=0.

 **********************************************************************

            Population analysis using the SCF density.

 **********************************************************************

 Alpha  occ. eigenvalues --  -10.22387 -10.20364  -0.78632  -0.67725  -0.49585
 Alpha  occ. eigenvalues --   -0.44270  -0.36564  -0.29615  -0.23820
 Alpha virt. eigenvalues --   -0.01357  -0.00229   0.04276   0.05119   0.06021
 Alpha virt. eigenvalues --    0.07355   0.08918   0.09636   0.11498   0.16052
 Alpha virt. eigenvalues --    0.17929   0.20320   0.24614   0.27558   0.40428
 Alpha virt. eigenvalues --    0.65630   0.67094   0.68650   0.70500   0.75455
 Alpha virt. eigenvalues --    0.83057   0.85431   0.86613   0.90109   0.95951
 Alpha virt. eigenvalues --    0.99481   1.11292   1.17366   1.18991   1.27852
 Alpha virt. eigenvalues --    1.33305   1.61212   1.65569   1.73394   1.77512
 Alpha virt. eigenvalues --    1.88114   1.96450   2.06003   2.14965   2.22067
 Alpha virt. eigenvalues --    2.25904   2.31328   2.37581   2.48722   2.60029
 Alpha virt. eigenvalues --    2.61714   2.63628   2.70585   2.75353   2.84611
 Alpha virt. eigenvalues --    2.89937   3.02355   3.13636   3.22798   3.35674
 Alpha virt. eigenvalues --    3.38320   3.86206   4.26992   5.17651
          Condensed to atoms (all electrons):
              1          2          3          4          5          6
     1  C    5.355181   0.166008   0.368023   0.360402   0.299821  -0.108436
     2  C    0.166008   5.197805   0.020456  -0.102572  -0.023895   0.453196
     3  H    0.368023   0.020456   0.548996  -0.074676  -0.064403   0.004619
     4  H    0.360402  -0.102572  -0.074676   0.860347  -0.057827  -0.009288
     5  H    0.299821  -0.023895  -0.064403  -0.057827   0.758346  -0.026508
     6  H   -0.108436   0.453196   0.004619  -0.009288  -0.026508   0.639653
     7  H   -0.139372   0.452923   0.002086  -0.027462   0.008130  -0.020811
     8  H    0.055915   0.290674  -0.000737   0.006223   0.000914  -0.072371
              7          8
     1  C   -0.139372   0.055915
     2  C    0.452923   0.290674
     3  H    0.002086  -0.000737
     4  H   -0.027462   0.006223
     5  H    0.008130   0.000914
     6  H   -0.020811  -0.072371
     7  H    0.658331  -0.070719
     8  H   -0.070719   0.600707
 Mulliken atomic charges:
              1
     1  C   -0.357543
     2  C   -0.454595
     3  H    0.195636
     4  H    0.044852
     5  H    0.105421
     6  H    0.139944
     7  H    0.136892
     8  H    0.189392
 Sum of Mulliken atomic charges =  -0.00000
 Mulliken charges with hydrogens summed into heavy atoms:
              1
     1  C   -0.011633
     2  C    0.011633
 Sum of Mulliken charges with hydrogens summed into heavy atoms =  -0.00000
 Electronic spatial extent (au):  <R**2>=            150.1912
 Charge=             -0.0000 electrons
 Dipole moment (field-independent basis, Debye):
    X=             -0.9159    Y=             -0.5810    Z=              0.4323  Tot=              1.1676
 Quadrupole moment (field-independent basis, Debye-Ang):
   XX=            -16.0947   YY=            -18.2928   ZZ=            -11.9647
   XY=             -0.3566   XZ=             -0.1924   YZ=             -0.7072
 Traceless Quadrupole moment (field-independent basis, Debye-Ang):
   XX=             -0.6440   YY=             -2.8421   ZZ=              3.4860
   XY=             -0.3566   XZ=             -0.1924   YZ=             -0.7072
 Octapole moment (field-independent basis, Debye-Ang**2):
  XXX=              3.8897  YYY=              5.6424  ZZZ=            -25.4303  XYY=              1.7997
  XXY=              1.3264  XXZ=            -10.9358  XZZ=             -0.8333  YZZ=             -1.3073
  YYZ=            -12.5642  XYZ=             -1.6883
 Hexadecapole moment (field-independent basis, Debye-Ang**3):
 XXXX=            -33.7618 YYYY=            -37.6925 ZZZZ=           -126.0234 XXXY=             -0.7511
 XXXZ=              0.2665 YYYX=             -1.0208 YYYZ=              2.0684 ZZZX=             -3.7727
 ZZZY=             -3.9588 XXYY=            -11.9207 XXZZ=            -31.7155 YYZZ=            -35.9455
 XXYZ=              0.8624 YYXZ=              0.5880 ZZXY=             -2.8899
 N-N= 4.198608230906D+01 E-N=-2.668883239119D+02  KE= 7.874931133804D+01
 No NMR shielding tensors so no spin-rotation constants.
 Leave Link  601 at Wed May 26 19:11:27 2021, MaxMem=   13107200 cpu:       0.1
 (Enter /programs/64bit/g09/g09-gfortran/bin/l701.exe)
 Compute integral first derivatives.
 ... and contract with generalized density number  0.
 Leave Link  701 at Wed May 26 19:11:27 2021, MaxMem=   13107200 cpu:       0.1
 (Enter /programs/64bit/g09/g09-gfortran/bin/l702.exe)
 L702 exits ... SP integral derivatives will be done elsewhere.
 Leave Link  702 at Wed May 26 19:11:27 2021, MaxMem=   13107200 cpu:       0.0
 (Enter /programs/64bit/g09/g09-gfortran/bin/l703.exe)
 Compute integral first derivatives, UseDBF=F ICtDFT=           0.
 Integral derivatives from FoFDir, PRISM(SPDF).
 Calling FoFJK, ICntrl=      2127 FMM=F ISym2X=0 I1Cent= 0 IOpClX= 0 NMat=1 NMatS=1 NMatT=0.
 FoFCou: FMM=F IPFlag=           0 FMFlag=      100000 FMFlg1=         800
         NFxFlg=           0 DoJE=F BraDBF=F KetDBF=F FulRan=T
         Omega=  0.000000  0.000000  1.000000  0.000000  0.000000 ICntrl=    2127 IOpCl=  0
         NMat0=    1 NMatS0=    1 NMatT0=    0 NMatD0=    1 NMtDS0=    0 NMtDT0=    0
         I1Cent=           0 NGrid=           0.
 Symmetry not used in FoFCou.
 Leave Link  703 at Wed May 26 19:11:29 2021, MaxMem=   13107200 cpu:       1.4
 (Enter /programs/64bit/g09/g09-gfortran/bin/l716.exe)
 Dipole        =-3.60333222D-01-2.28582585D-01 1.70062378D-01
 -------------------------------------------------------------------
 Center     Atomic                   Forces (Hartrees/Bohr)
 Number     Number              X              Y              Z
 -------------------------------------------------------------------
      1        6          -0.116070179   -0.067832345   -0.106980062
      2        6          -0.003356437   -0.071556322    0.010594339
      3        1           0.065056503    0.037908187    0.032252890
      4        1           0.042653850    0.010881404    0.035973819
      5        1          -0.005100365    0.041708213    0.020240472
      6        1          -0.011139864   -0.028272476   -0.021717797
      7        1          -0.026250980   -0.009042767   -0.019708180
      8        1           0.054207473    0.086206106    0.049344519
 -------------------------------------------------------------------
 Cartesian Forces:  Max     0.116070179 RMS     0.050923979
 -----------------------------------------------------------------------------------------------
                       Internal Coordinate Forces (Hartree/Bohr or radian)
  Cent   Atom   N1       Length/X         N2         Alpha/Y        N3         Beta/Z          J
 -----------------------------------------------------------------------------------------------
      1  C 
      2  C        1   0.018513(     1)
      3  H        1  -0.026162(     2)      2  -0.146533(     8)
      4  H        1  -0.038148(     3)      2  -0.063760(     9)      3  -0.077607(    14)     0
      5  H        1   0.002358(     4)      2  -0.046216(    10)      3   0.084669(    15)     0
      6  H        2   0.004604(     5)      1  -0.050205(    11)      3  -0.000466(    16)     0
      7  H        2  -0.010766(     6)      1  -0.037777(    12)      6  -0.056775(    17)     0
      8  H        2   0.056914(     7)      1  -0.191263(    13)      6  -0.000563(    18)     0
 -----------------------------------------------------------------------------------------------
 Internal  Forces:  Max     0.191263085 RMS     0.070899860
 Force constants in Cartesian coordinates: 
                1             2             3             4             5 
      1  0.111322D+01
      2 -0.596044D+00  0.352705D+01
      3  0.800864D-01  0.406728D-01  0.805180D+00
      4 -0.143099D+01  0.156745D+01  0.328512D-01  0.379560D+01
      5  0.877982D+00 -0.228207D+01  0.185331D-01 -0.224635D+01  0.253095D+01
      6 -0.117717D-01 -0.188786D-01 -0.350294D+00 -0.533265D-01 -0.772866D-01
      7 -0.110804D+00 -0.425346D-03 -0.280858D-01  0.318905D-01 -0.262472D-02
      8  0.220489D+00 -0.164859D+01 -0.236830D-01 -0.517813D+00  0.946121D+00
      9  0.166374D-01 -0.390995D-04 -0.294376D+00  0.293150D-02 -0.241274D-03
     10 -0.619898D-01 -0.807200D-01 -0.242859D-01 -0.313095D-01  0.216948D-01
     11 -0.563493D-01 -0.133480D+00 -0.286726D-01  0.192189D-01 -0.415960D-02
     12 -0.230233D-01 -0.419836D-01 -0.675699D-01 -0.991045D-02 -0.201786D-01
     13 -0.288796D+00  0.186557D-01 -0.605659D-01  0.108517D-01 -0.193577D-02
     14 -0.290843D-01 -0.449117D-01 -0.685026D-02  0.496737D-01 -0.194006D-01
     15 -0.737005D-01  0.134991D-02 -0.929397D-01 -0.258723D-01  0.188676D-02
     16  0.767586D-02 -0.828885D-04  0.000000D+00 -0.301245D+00  0.541167D-02
     17 -0.261324D-02 -0.343805D-01  0.000000D+00 -0.192409D-01 -0.589539D-01
     18  0.263289D-01 -0.233442D-03  0.000000D+00  0.899806D-01  0.181628D-01
     19  0.107078D-01  0.369372D-01  0.000000D+00 -0.117077D+00  0.491552D-01
     20  0.186658D-02  0.290025D-01  0.000000D+00  0.909728D-01 -0.232086D+00
     21 -0.130082D-01  0.217964D-01  0.000000D+00 -0.256634D-01  0.780962D-01
     22  0.760976D+00 -0.945770D+00  0.000000D+00 -0.195773D+01  0.129667D+01
     23 -0.416247D+00  0.587380D+00  0.000000D+00  0.105609D+01 -0.880404D+00
     24 -0.154901D-02 -0.268434D-02  0.000000D+00 -0.109907D-01 -0.189724D-01
                6             7             8             9            10 
      6  0.976416D+00
      7  0.000000D+00  0.847086D-01
      8  0.000000D+00  0.838742D-02  0.867312D+00
      9  0.000000D+00 -0.190362D-01  0.771004D-03  0.290045D+00
     10  0.000000D+00  0.343002D-02 -0.912301D-02  0.315301D-03  0.670256D-01
     11  0.000000D+00 -0.644695D-02 -0.392143D-02 -0.592628D-03  0.551753D-01
     12  0.000000D+00  0.139078D-01  0.252331D-01  0.127846D-02  0.189551D-01
     13  0.000000D+00 -0.922538D-02  0.135236D-02 -0.848033D-03  0.468845D-03
     14  0.000000D+00  0.110959D-02  0.967954D-02  0.101998D-03  0.258382D-01
     15  0.000000D+00  0.332141D-01 -0.232102D-02  0.305317D-02  0.501547D-02
     16  0.642742D-01  0.000000D+00  0.117247D-04  0.000000D+00  0.000000D+00
     17  0.256405D-01  0.000000D+00  0.271969D-01  0.000000D+00  0.205094D-02
     18 -0.107076D+00  0.000000D+00  0.000000D+00  0.000000D+00  0.000000D+00
     19 -0.641043D-02  0.000000D+00 -0.226335D-01  0.000000D+00 -0.170681D-02
     20  0.600654D-01  0.000000D+00 -0.132513D-01  0.000000D+00 -0.999288D-03
     21 -0.987291D-01  0.000000D+00  0.000000D+00  0.000000D+00  0.000000D+00
     22  0.723450D-02  0.000000D+00  0.319329D+00  0.000000D+00  0.240808D-01
     23  0.104593D-01  0.000000D+00 -0.184548D+00  0.000000D+00 -0.139169D-01
     24 -0.420316D+00  0.000000D+00  0.000000D+00  0.000000D+00  0.000000D+00
               11            12            13            14            15 
     11  0.149755D+00
     12  0.321406D-01  0.653043D-01
     13 -0.261501D-03  0.707479D-04  0.288771D+00
     14 -0.147126D-01  0.478853D-02 -0.190008D-01  0.529373D-01
     15 -0.287538D-02  0.987118D-03  0.613432D-01  0.195974D-02  0.888994D-01
     16  0.000000D+00  0.000000D+00  0.000000D+00 -0.112764D-05  0.000000D+00
     17 -0.103913D-02  0.000000D+00 -0.189720D-03 -0.261571D-02  0.000000D+00
     18  0.000000D+00  0.000000D+00  0.000000D+00  0.000000D+00  0.000000D+00
     19  0.864776D-03  0.000000D+00  0.157887D-03  0.217682D-02  0.000000D+00
     20  0.506301D-03  0.000000D+00  0.924382D-04  0.127447D-02  0.000000D+00
     21  0.000000D+00  0.000000D+00  0.000000D+00  0.000000D+00  0.000000D+00
     22 -0.122008D-01  0.000000D+00 -0.222757D-02 -0.307120D-01  0.000000D+00
     23  0.705117D-02  0.000000D+00  0.128737D-02  0.177493D-01  0.000000D+00
     24  0.000000D+00  0.000000D+00  0.000000D+00  0.000000D+00  0.000000D+00
               16            17            18            19            20 
     16  0.308068D+00
     17 -0.354984D-02  0.479113D-01
     18 -0.665439D-01 -0.117612D-01  0.992717D-01
     19 -0.360570D-02  0.266219D-01 -0.124055D-01  0.105032D+00
     20 -0.148976D-02  0.110898D-01 -0.512567D-02 -0.100103D+00  0.210071D+00
     21  0.183570D-02 -0.132863D-01  0.631535D-02  0.195221D-01 -0.550071D-01
     22 -0.108948D-01 -0.307917D-02 -0.373602D-01  0.649189D-02  0.966051D-02
     23 -0.299329D-03  0.107913D-01 -0.104253D-02  0.698090D-02 -0.660731D-02
     24  0.434006D-03 -0.592984D-03  0.148934D-02 -0.706228D-03  0.673972D-04
               21            22            23            24 
     21  0.909929D-01
     22  0.173138D-01  0.117930D+01
     23 -0.315992D-01 -0.633899D+00  0.448588D+00
     24  0.142085D-02  0.128119D-01  0.221823D-01  0.417406D+00
 Force constants in internal coordinates: 
                1             2             3             4             5 
      1  0.350294D+00
      2  0.000000D+00  0.291795D+00
      3  0.000000D+00  0.000000D+00  0.188593D+00
      4  0.000000D+00  0.000000D+00  0.000000D+00  0.307336D+00
      5  0.000000D+00  0.000000D+00  0.000000D+00  0.000000D+00  0.327473D+00
      6  0.000000D+00  0.000000D+00  0.000000D+00  0.000000D+00  0.000000D+00
      7  0.000000D+00  0.000000D+00  0.000000D+00  0.000000D+00  0.000000D+00
      8  0.000000D+00  0.000000D+00  0.000000D+00  0.000000D+00  0.000000D+00
      9  0.000000D+00  0.000000D+00  0.000000D+00  0.000000D+00  0.000000D+00
     10  0.000000D+00  0.000000D+00  0.000000D+00  0.000000D+00  0.000000D+00
     11  0.000000D+00  0.000000D+00  0.000000D+00  0.000000D+00  0.000000D+00
     12  0.000000D+00  0.000000D+00  0.000000D+00  0.000000D+00  0.000000D+00
     13  0.000000D+00  0.000000D+00  0.000000D+00  0.000000D+00  0.000000D+00
     14  0.000000D+00  0.000000D+00  0.000000D+00  0.000000D+00  0.000000D+00
     15  0.000000D+00  0.000000D+00  0.000000D+00  0.000000D+00  0.000000D+00
     16  0.000000D+00  0.000000D+00  0.000000D+00  0.000000D+00  0.000000D+00
     17  0.000000D+00  0.000000D+00  0.000000D+00  0.000000D+00  0.000000D+00
     18  0.000000D+00  0.000000D+00  0.000000D+00  0.000000D+00  0.000000D+00
                6             7             8             9            10 
      6  0.287296D+00
      7  0.000000D+00  0.419353D+00
      8  0.000000D+00  0.000000D+00  0.388236D+00
      9  0.000000D+00  0.000000D+00  0.772303D-01  0.323672D+00
     10  0.000000D+00  0.000000D+00  0.159746D+00  0.558619D-02  0.326626D+00
     11  0.000000D+00  0.000000D+00  0.000000D+00  0.000000D+00  0.000000D+00
     12  0.000000D+00  0.000000D+00  0.000000D+00  0.000000D+00  0.000000D+00
     13  0.000000D+00  0.000000D+00  0.000000D+00  0.000000D+00  0.000000D+00
     14  0.000000D+00  0.000000D+00  0.303976D-01  0.142647D-01  0.299416D-01
     15  0.000000D+00  0.000000D+00 -0.195986D-02 -0.250969D-01 -0.290619D-01
     16  0.000000D+00  0.000000D+00  0.000000D+00  0.000000D+00  0.000000D+00
     17  0.000000D+00  0.000000D+00  0.000000D+00  0.000000D+00  0.000000D+00
     18  0.000000D+00  0.000000D+00  0.000000D+00  0.000000D+00  0.000000D+00
               11            12            13            14            15 
     11  0.350545D+00
     12  0.311940D-01  0.350498D+00
     13  0.839332D-01  0.830552D-01  0.307732D+00
     14  0.000000D+00  0.000000D+00  0.000000D+00  0.216381D+00
     15  0.000000D+00  0.000000D+00  0.000000D+00 -0.142671D+00  0.216886D+00
     16  0.153541D-02 -0.152739D-02 -0.175416D-03  0.324952D-01  0.324952D-01
     17 -0.605093D-01 -0.516680D-01 -0.309914D-01  0.108317D-01  0.108317D-01
     18  0.102999D-01 -0.103399D-01  0.260890D-04  0.108317D-01  0.108317D-01
               16            17            18 
     16  0.172251D+00
     17  0.715329D-01  0.193786D+00
     18  0.291970D-01 -0.239172D-02  0.339957D-01
 Leave Link  716 at Wed May 26 19:11:29 2021, MaxMem=   13107200 cpu:       0.0
 (Enter /programs/64bit/g09/g09-gfortran/bin/l103.exe)

 GradGradGradGradGradGradGradGradGradGradGradGradGradGradGradGradGradGrad
 Berny optimization.
 Search for a local minimum.
 Step number   1 out of a maximum of    2
 All quantities printed in internal units (Hartrees-Bohrs-Radians)
 Second derivative matrix not updated -- first step.
 The second derivative matrix:
                          d1        a1        t1        d2        a2
           d1           0.35029
           a1           0.00000   0.38824
           t1           0.00000   0.03040   0.21638
           d2           0.00000  -0.00000  -0.00000   0.29179
           a2          -0.00000   0.07723   0.01426  -0.00000   0.32367
           t2          -0.00000  -0.00196  -0.14267   0.00000  -0.02510
           d3           0.00000  -0.00000  -0.00000   0.00000  -0.00000
           d4          -0.00000  -0.00000   0.00000   0.00000   0.00000
           a3           0.00000   0.15975   0.02994  -0.00000   0.00559
           d5           0.00000   0.00000   0.00000   0.00000   0.00000
           a4          -0.00000   0.00000  -0.00000   0.00000  -0.00000
           t3          -0.00000   0.00000   0.03250   0.00000   0.00000
           d6           0.00000   0.00000   0.00000   0.00000  -0.00000
           a5          -0.00000   0.00000   0.00000   0.00000  -0.00000
           t4          -0.00000   0.00000   0.01083   0.00000   0.00000
           d7           0.00000   0.00000   0.00000   0.00000  -0.00000
           a6           0.00000   0.00000  -0.00000   0.00000   0.00000
           t5          -0.00000   0.00000   0.01083   0.00000   0.00000
                          t2        d3        d4        a3        d5
           t2           0.21689
           d3           0.00000   0.18859
           d4          -0.00000  -0.00000   0.30734
           a3          -0.02906  -0.00000   0.00000   0.32663
           d5           0.00000  -0.00000  -0.00000   0.00000   0.32747
           a4          -0.00000   0.00000   0.00000   0.00000   0.00000
           t3           0.03250  -0.00000   0.00000  -0.00000  -0.00000
           d6           0.00000   0.00000  -0.00000   0.00000  -0.00000
           a5          -0.00000  -0.00000   0.00000  -0.00000   0.00000
           t4           0.01083  -0.00000   0.00000  -0.00000  -0.00000
           d7           0.00000  -0.00000  -0.00000   0.00000  -0.00000
           a6          -0.00000   0.00000   0.00000  -0.00000  -0.00000
           t5           0.01083  -0.00000  -0.00000   0.00000  -0.00000
                          a4        t3        d6        a5        t4
           a4           0.35054
           t3           0.00154   0.17225
           d6           0.00000  -0.00000   0.28730
           a5           0.03119  -0.00153   0.00000   0.35050
           t4          -0.06051   0.07153  -0.00000  -0.05167   0.19379
           d7          -0.00000   0.00000  -0.00000   0.00000   0.00000
           a6           0.08393  -0.00018  -0.00000   0.08306  -0.03099
           t5           0.01030   0.02920  -0.00000  -0.01034  -0.00239
                          d7        a6        t5
           d7           0.41935
           a6          -0.00000   0.30773
           t5           0.00000   0.00003   0.03400
     Eigenvalues --- 1000.000001000.000001000.000001000.000001000.00000
     Eigenvalues --- 1000.000001000.000001000.000001000.000001000.00000
     Eigenvalues --- 1000.000001000.000001000.000001000.000001000.00000
     Eigenvalues --- 1000.000001000.000001000.00000
 Angle between quadratic step and forces=  90.00 degrees.
 Linear search not attempted -- first point.
 Variable       Old X    -DE/DX   Delta X   Delta X   Delta X     New X
                                 (Linear)    (Quad)   (Total)
    d1        2.78927   0.01851   0.00000   0.00000   0.00000   2.78927
    a1        3.04993  -0.14653   0.00000   0.00000   0.00000   3.04993
    t1        2.03976  -0.07761   0.00000   0.00000   0.00000   2.03976
    d2        2.16330  -0.02616   0.00000   0.00000   0.00000   2.16330
    a2        1.86412  -0.06376   0.00000   0.00000   0.00000   1.86412
    t2       -3.06919   0.08467   0.00000   0.00000   0.00000  -3.06919
    d3        2.44696  -0.03815   0.00000   0.00000   0.00000   2.44696
    d4        2.13224   0.00236   0.00000   0.00000   0.00000   2.13224
    a3        1.84329  -0.04622   0.00000   0.00000   0.00000   1.84329
    d5        2.09498   0.00460   0.00000   0.00000   0.00000   2.09498
    a4        1.85451  -0.05020   0.00000   0.00000   0.00000   1.85451
    t3        3.14116  -0.00047   0.00000   0.00000   0.00000   3.14116
    d6        2.17271  -0.01077   0.00000   0.00000   0.00000   2.17271
    a5        1.85496  -0.03778   0.00000   0.00000   0.00000   1.85496
    t4        2.10090  -0.05678   0.00000   0.00000   0.00000   2.10090
    d7        1.95705   0.05691   0.00000   0.00000   0.00000   1.95705
    a6        3.06574  -0.19126   0.00000   0.00000   0.00000   3.06574
    t5       -2.09440  -0.00056   0.00000   0.00000   0.00000  -2.09440
         Item               Value     Threshold  Converged?
 Maximum Force            0.000000     0.000450     YES
 RMS     Force            0.000000     0.000300     YES
 Maximum Displacement     0.000000     0.001800     YES
 RMS     Displacement     0.000000     0.001200     YES
 Predicted change in Energy=-0.000000D+00
 Optimization completed.
    -- Stationary point found.
                       ----------------------------
                       !   Optimized Parameters   !
                       ! (Angstroms and Degrees)  !
 ----------------------                            ----------------------
 !      Name          Value   Derivative information (Atomic Units)     !
 ------------------------------------------------------------------------
 !       d1          1.476    -DE/DX =    0.0185                        !
 !       a1        174.7479   -DE/DX =   -0.1465                        !
 !       t1        116.8696   -DE/DX =   -0.0776                        !
 !       d2          1.1448   -DE/DX =   -0.0262                        !
 !       a2        106.8063   -DE/DX =   -0.0638                        !
 !       t2       -175.8515   -DE/DX =    0.0847                        !
 !       d3          1.2949   -DE/DX =   -0.0381                        !
 !       d4          1.1283   -DE/DX =    0.0024                        !
 !       a3        105.6127   -DE/DX =   -0.0462                        !
 !       d5          1.1086   -DE/DX =    0.0046                        !
 !       a4        106.2556   -DE/DX =   -0.0502                        !
 !       t3        179.9753   -DE/DX =   -0.0005                        !
 !       d6          1.1497   -DE/DX =   -0.0108                        !
 !       a5        106.2813   -DE/DX =   -0.0378                        !
 !       t4        120.3724   -DE/DX =   -0.0568                        !
 !       d7          1.0356   -DE/DX =    0.0569                        !
 !       a6        175.6539   -DE/DX =   -0.1913                        !
 !       t5       -120.0      -DE/DX =   -0.0006                        !
 ------------------------------------------------------------------------
 GradGradGradGradGradGradGradGradGradGradGradGradGradGradGradGradGradGrad

 Leave Link  103 at Wed May 26 19:11:29 2021, MaxMem=   13107200 cpu:       0.0
 (Enter /programs/64bit/g09/g09-gfortran/bin/l9999.exe)
 1\1\GINC-MOLMOD\Force\RB3LYP\6-31+G(d,p)\C2H6\OSPITE\26-May-2021\1\\#p
  b3lyp/6-31+g(d,p) force nosym\\c2h6 molecule\\0,1\C\C,1,d1\H,1,d2,2,a
 1\H,1,d3,2,a2,3,t1,0\H,1,d4,2,a3,3,t2,0\H,2,d5,1,a4,3,t3,0\H,2,d6,1,a5
 ,6,t4,0\H,2,d7,1,a6,6,t5,0\\d1=1.47601867\a1=174.74790941\t1=116.86959
 822\d2=1.14476955\a2=106.80625115\t2=-175.85154776\d3=1.29487307\d4=1.
 12833293\a3=105.61268454\d5=1.10861327\a4=106.25560702\t3=179.9752996\
 d6=1.149747\a5=106.28126721\t4=120.37244792\d7=1.03562882\a6=175.65389
 211\t5=-120.00003234\\Version=EM64L-G09RevA.02\HF=-79.5868188\RMSD=3.4
 02e-09\RMSF=5.092e-02\Dipole=-0.3603332,-0.2285826,0.1700624\Quadrupol
 e=-0.4787723,-2.1130116,2.5917839,-0.2651357,-0.1430423,-0.5257881\PG=
 C01 [X(C2H6)]\\@


 THE PROBLEM WITH THE LADDER OF SUCCESS IS YOU CAN'T
 CLIMB IT WHILE YOU'RE TWIDDLING YOUR THUMBS.
 Job cpu time:  0 days  0 hours  0 minutes 10.4 seconds.
 File lengths (MBytes):  RWF=      5 Int=      0 D2E=      0 Chk=      1 Scr=      1
 Normal termination of Gaussian 09 at Wed May 26 19:11:29 2021.
