 Entering Gaussian System, Link 0=g09
 Input=c2h6_045.com
 Output=c2h6_045.log
 Initial command:
 /programs/64bit/g09/g09-gfortran/bin/l1.exe /data/scratch/Gau-6993.inp -scrdir=/data/scratch/
 Entering Link 1 = /programs/64bit/g09/g09-gfortran/bin/l1.exe PID=      6994.
  
 Copyright (c) 1988,1990,1992,1993,1995,1998,2003,2009, Gaussian, Inc.
                  All Rights Reserved.
  
 This is part of the Gaussian(R) 09 program.  It is based on
 the Gaussian(R) 03 system (copyright 2003, Gaussian, Inc.),
 the Gaussian(R) 98 system (copyright 1998, Gaussian, Inc.),
 the Gaussian(R) 94 system (copyright 1995, Gaussian, Inc.),
 the Gaussian 92(TM) system (copyright 1992, Gaussian, Inc.),
 the Gaussian 90(TM) system (copyright 1990, Gaussian, Inc.),
 the Gaussian 88(TM) system (copyright 1988, Gaussian, Inc.),
 the Gaussian 86(TM) system (copyright 1986, Carnegie Mellon
 University), and the Gaussian 82(TM) system (copyright 1983,
 Carnegie Mellon University). Gaussian is a federally registered
 trademark of Gaussian, Inc.
  
 This software contains proprietary and confidential information,
 including trade secrets, belonging to Gaussian, Inc.
  
 This software is provided under written license and may be
 used, copied, transmitted, or stored only in accord with that
 written license.
  
 The following legend is applicable only to US Government
 contracts under FAR:
  
                    RESTRICTED RIGHTS LEGEND
  
 Use, reproduction and disclosure by the US Government is
 subject to restrictions as set forth in subparagraphs (a)
 and (c) of the Commercial Computer Software - Restricted
 Rights clause in FAR 52.227-19.
  
 Gaussian, Inc.
 340 Quinnipiac St., Bldg. 40, Wallingford CT 06492
  
  
 ---------------------------------------------------------------
 Warning -- This program may not be used in any manner that
 competes with the business of Gaussian, Inc. or will provide
 assistance to any competitor of Gaussian, Inc.  The licensee
 of this program is prohibited from giving any competitor of
 Gaussian, Inc. access to this program.  By using this program,
 the user acknowledges that Gaussian, Inc. is engaged in the
 business of creating and licensing software in the field of
 computational chemistry and represents and warrants to the
 licensee that it is not a competitor of Gaussian, Inc. and that
 it will not use this program in any manner prohibited above.
 ---------------------------------------------------------------
  

 Cite this work as:
 Gaussian 09, Revision A.02,
 M. J. Frisch, G. W. Trucks, H. B. Schlegel, G. E. Scuseria, 
 M. A. Robb, J. R. Cheeseman, G. Scalmani, V. Barone, B. Mennucci, 
 G. A. Petersson, H. Nakatsuji, M. Caricato, X. Li, H. P. Hratchian, 
 A. F. Izmaylov, J. Bloino, G. Zheng, J. L. Sonnenberg, M. Hada, 
 M. Ehara, K. Toyota, R. Fukuda, J. Hasegawa, M. Ishida, T. Nakajima, 
 Y. Honda, O. Kitao, H. Nakai, T. Vreven, J. A. Montgomery, Jr., 
 J. E. Peralta, F. Ogliaro, M. Bearpark, J. J. Heyd, E. Brothers, 
 K. N. Kudin, V. N. Staroverov, R. Kobayashi, J. Normand, 
 K. Raghavachari, A. Rendell, J. C. Burant, S. S. Iyengar, J. Tomasi, 
 M. Cossi, N. Rega, J. M. Millam, M. Klene, J. E. Knox, J. B. Cross, 
 V. Bakken, C. Adamo, J. Jaramillo, R. Gomperts, R. E. Stratmann, 
 O. Yazyev, A. J. Austin, R. Cammi, C. Pomelli, J. W. Ochterski, 
 R. L. Martin, K. Morokuma, V. G. Zakrzewski, G. A. Voth, 
 P. Salvador, J. J. Dannenberg, S. Dapprich, A. D. Daniels, 
 O. Farkas, J. B. Foresman, J. V. Ortiz, J. Cioslowski, 
 and D. J. Fox, Gaussian, Inc., Wallingford CT, 2009.
 
 ******************************************
 Gaussian 09:  EM64L-G09RevA.02 11-Jun-2009
                26-May-2021 
 ******************************************
 %chk=c2h6_045.chk
 %mem=100MB
 --------------------------------
 #p b3lyp/6-31+g(d,p) force nosym
 --------------------------------
 1/10=7,30=1,38=1/1,3;
 2/12=2,15=1,17=6,18=5,40=1/2;
 3/5=1,6=6,7=111,11=2,16=1,25=1,30=1,71=1,74=-5/1,2,3;
 4//1;
 5/5=2,38=5/2;
 6/7=2,8=2,9=2,10=2,28=1/1;
 7/29=1,30=1/1,2,3,16;
 1/10=7,30=1/3;
 99//99;
 Leave Link    1 at Wed May 26 19:15:14 2021, MaxMem=   13107200 cpu:       0.0
 (Enter /programs/64bit/g09/g09-gfortran/bin/l101.exe)
 -------------
 c2h6 molecule
 -------------
 Symbolic Z-matrix:
 Charge =  0 Multiplicity = 1
 C1
 C2                   1    d1
 H3                   1    d2       2    a1
 H4                   1    d3       2    a2       3    t1       0
 H5                   1    d4       2    a3       3    t2       0
 H6                   2    d5       1    a4       3    t3       0
 H7                   2    d6       1    a5       6    t4       0
 H8                   2    d7       1    a6       6    t5       0
       Variables:
       Constants:
  d1                    1.56913                  
  a1                  131.8487                   
  t1                  104.1614                   
  d2                    1.09698                  
  a2                   91.79303                  
  t2                 -150.3304                   
  d3                    1.11043                  
  d4                    1.09374                  
  a3                  117.65996                  
  d5                    1.09889                  
  a4                   99.55774                  
  t3                  179.31232                  
  d6                    1.09108                  
  a5                  105.80739                  
  t4                  103.48025                  
  d7                    1.08743                  
  a6                  117.97923                  
  t5                 -119.96785                  
 
 NAtoms=      8 NQM=      8 NQMF=      0 NMic=      0 NMicF=      0 NTot=      8.
                    Isotopes and Nuclear Properties:
 (Nuclear quadrupole moments (NQMom) in fm**2, nuclear magnetic moments (NMagM)
  in nuclear magnetons)

  Atom         1           2           3           4           5           6           7           8
 IAtWgt=          12          12           1           1           1           1           1           1
 AtmWgt=  12.0000000  12.0000000   1.0078250   1.0078250   1.0078250   1.0078250   1.0078250   1.0078250
 NucSpn=           0           0           1           1           1           1           1           1
 AtZEff=   0.0000000   0.0000000   0.0000000   0.0000000   0.0000000   0.0000000   0.0000000   0.0000000
 NQMom=    0.0000000   0.0000000   0.0000000   0.0000000   0.0000000   0.0000000   0.0000000   0.0000000
 NMagM=    0.0000000   0.0000000   2.7928460   2.7928460   2.7928460   2.7928460   2.7928460   2.7928460
 Leave Link  101 at Wed May 26 19:15:14 2021, MaxMem=   13107200 cpu:       0.0
 (Enter /programs/64bit/g09/g09-gfortran/bin/l103.exe)

 GradGradGradGradGradGradGradGradGradGradGradGradGradGradGradGradGradGrad
 Berny optimization.
 Initialization pass.
                       ----------------------------
                       !    Initial Parameters    !
                       ! (Angstroms and Degrees)  !
 ----------------------                            ----------------------
 !      Name          Value   Derivative information (Atomic Units)     !
 ------------------------------------------------------------------------
 !       d1          1.5691   Frozen                                    !
 !       a1        131.8487   Frozen                                    !
 !       t1        104.1614   Frozen                                    !
 !       d2          1.097    Frozen                                    !
 !       a2         91.793    Frozen                                    !
 !       t2       -150.3304   Frozen                                    !
 !       d3          1.1104   Frozen                                    !
 !       d4          1.0937   Frozen                                    !
 !       a3        117.66     Frozen                                    !
 !       d5          1.0989   Frozen                                    !
 !       a4         99.5577   Frozen                                    !
 !       t3        179.3123   Frozen                                    !
 !       d6          1.0911   Frozen                                    !
 !       a5        105.8074   Frozen                                    !
 !       t4        103.4802   Frozen                                    !
 !       d7          1.0874   Frozen                                    !
 !       a6        117.9792   Frozen                                    !
 !       t5       -119.9678   Frozen                                    !
 ------------------------------------------------------------------------
 Trust Radius=3.00D-01 FncErr=1.00D-07 GrdErr=1.00D-07
 Number of steps in this run=   2 maximum allowed number of steps=   2.
 GradGradGradGradGradGradGradGradGradGradGradGradGradGradGradGradGradGrad

 Leave Link  103 at Wed May 26 19:15:14 2021, MaxMem=   13107200 cpu:       0.0
 (Enter /programs/64bit/g09/g09-gfortran/bin/l202.exe)
                          Input orientation:                          
 ---------------------------------------------------------------------
 Center     Atomic      Atomic             Coordinates (Angstroms)
 Number     Number       Type             X           Y           Z
 ---------------------------------------------------------------------
      1          6           0        0.000000    0.000000    0.000000
      2          6           0        0.000000    0.000000    1.569134
      3          1           0        0.817148    0.000000   -0.731865
      4          1           0       -0.271537   -1.076154   -0.034744
      5          1           0       -0.841741    0.479529   -0.507742
      6          1           0       -1.083555    0.013006    1.751595
      7          1           0        0.232453   -1.023761    1.866349
      8          1           0        0.489646    0.826118    2.079302
 ---------------------------------------------------------------------
                    Distance matrix (angstroms):
                    1          2          3          4          5
     1  C    0.000000
     2  C    1.569134   0.000000
     3  H    1.096976   2.441788   0.000000
     4  H    1.110426   1.950452   1.682058   0.000000
     5  H    1.093745   2.291700   1.741290   1.723081   0.000000
     6  H    2.059695   1.098886   3.127365   2.244247   2.319637
     7  H    2.141350   1.091082   2.853187   1.967462   3.008336
     8  H    2.290354   1.087426   2.948285   2.944016   2.930104
                    6          7          8
     6  H    0.000000
     7  H    1.679265   0.000000
     8  H    1.800973   1.879775   0.000000
 Symmetry turned off by external request.
 Stoichiometry    C2H6
 Framework group  C1[X(C2H6)]
 Deg. of freedom    18
 Full point group                 C1      NOp   1
 Rotational constants (GHZ):     83.5956808     19.3007409     19.1539504
 Leave Link  202 at Wed May 26 19:15:14 2021, MaxMem=   13107200 cpu:       0.0
 (Enter /programs/64bit/g09/g09-gfortran/bin/l301.exe)
 Standard basis: 6-31+G(d,p) (6D, 7F)
 Ernie: Thresh=  0.10000D-02 Tol=  0.10000D-05 Strict=F.
 Integral buffers will be    131072 words long.
 Raffenetti 2 integral format.
 Two-electron integral symmetry is turned off.
    68 basis functions,   106 primitive gaussians,    68 cartesian basis functions
     9 alpha electrons        9 beta electrons
       nuclear repulsion energy        41.8600165072 Hartrees.
 IExCor=  402 DFT=T Ex+Corr=B3LYP ExCW=0 ScaHFX=  0.200000
 ScaDFX=  0.800000  0.720000  1.000000  0.810000 ScalE2=  1.000000  1.000000
 IRadAn=      0 IRanWt=     -1 IRanGd=            0 ICorTp=0
 NAtoms=    8 NActive=    8 NUniq=    8 SFac= 7.50D-01 NAtFMM=   80 NAOKFM=F Big=F
 Leave Link  301 at Wed May 26 19:15:15 2021, MaxMem=   13107200 cpu:       0.0
 (Enter /programs/64bit/g09/g09-gfortran/bin/l302.exe)
 NPDir=0 NMtPBC=     1 NCelOv=     1 NCel=       1 NClECP=     1 NCelD=      1
         NCelK=      1 NCelE2=     1 NClLst=     1 CellRange=     0.0.
 One-electron integrals computed using PRISM.
 NBasis=    68 RedAO= T  NBF=    68
 NBsUse=    68 1.00D-06 NBFU=    68
 Precomputing XC quadrature grid using
 IXCGrd= 2 IRadAn=           0 IRanWt=          -1 IRanGd=           0 AccXCQ= 1.00D-10.
 NRdTot=     510 NPtTot=       65100 NUsed=       68787 NTot=       68819
 NSgBfM=    68    68    68    68    68 NAtAll=     8     8.
 Leave Link  302 at Wed May 26 19:15:15 2021, MaxMem=   13107200 cpu:       0.1
 (Enter /programs/64bit/g09/g09-gfortran/bin/l303.exe)
 DipDrv:  MaxL=1.
 Leave Link  303 at Wed May 26 19:15:15 2021, MaxMem=   13107200 cpu:       0.0
 (Enter /programs/64bit/g09/g09-gfortran/bin/l401.exe)
 Harris functional with IExCor=  402 diagonalized for initial guess.
 ExpMin= 4.38D-02 ExpMax= 3.05D+03 ExpMxC= 4.57D+02 IAcc=2 IRadAn=         0 AccDes= 0.00D+00
 HarFok:  IExCor=  402 AccDes= 0.00D+00 IRadAn=         0 IDoV= 1
 ScaDFX=  1.000000  1.000000  1.000000  1.000000
 FoFCou: FMM=F IPFlag=           0 FMFlag=      100000 FMFlg1=           0
         NFxFlg=           0 DoJE=T BraDBF=F KetDBF=T FulRan=T
         Omega=  0.000000  0.000000  1.000000  0.000000  0.000000 ICntrl=     500 IOpCl=  0
         NMat0=    1 NMatS0=    1 NMatT0=    0 NMatD0=    1 NMtDS0=    0 NMtDT0=    0
         I1Cent=           4 NGrid=           0.
 Symmetry not used in FoFCou.
 Harris En= -79.8636773482145    
 Leave Link  401 at Wed May 26 19:15:15 2021, MaxMem=   13107200 cpu:       0.7
 (Enter /programs/64bit/g09/g09-gfortran/bin/l502.exe)
 Closed shell SCF:
 Requested convergence on RMS density matrix=1.00D-08 within 128 cycles.
 Requested convergence on MAX density matrix=1.00D-06.
 Requested convergence on             energy=1.00D-06.
 No special actions if energy rises.
 Using DIIS extrapolation, IDIIS=  1040.
 Two-electron integral symmetry not used.
        68702 words used for storage of precomputed grid.
 Keep R1 ints in memory in canonical form, NReq=3743087.
 IEnd=      101552 IEndB=      101552 NGot=    13107200 MDV=    10273922
 LenX=    10273922 LenY=    10268857
 Symmetry not used in FoFDir.
 MinBra= 0 MaxBra= 2 Meth= 1.
 IRaf=       0 NMat=   1 IRICut=       1 DoRegI=T DoRafI=F ISym2E= 0 JSym2E=0.

 Cycle   1  Pass 1  IDiag  1:
 E= -79.6854922893702    
 DIIS: error= 3.85D-02 at cycle   1 NSaved=   1.
 NSaved= 1 IEnMin= 1 EnMin= -79.6854922893702     IErMin= 1 ErrMin= 3.85D-02
 ErrMax= 3.85D-02 EMaxC= 1.00D-01 BMatC= 1.09D-01 BMatP= 1.09D-01
 IDIUse=3 WtCom= 6.15D-01 WtEn= 3.85D-01
 Coeff-Com:  0.100D+01
 Coeff-En:   0.100D+01
 Coeff:      0.100D+01
 Gap=     0.255 Goal=   None    Shift=    0.000
 GapD=    0.255 DampG=1.000 DampE=0.500 DampFc=0.5000 IDamp=-1.
 Damping current iteration by 5.00D-01
 RMSDP=1.00D-02 MaxDP=1.40D-01              OVMax= 2.03D-01

 Cycle   2  Pass 1  IDiag  1:
 E= -79.7368885186662     Delta-E=       -0.051396229296 Rises=F Damp=T
 DIIS: error= 1.11D-02 at cycle   2 NSaved=   2.
 NSaved= 2 IEnMin= 2 EnMin= -79.7368885186662     IErMin= 2 ErrMin= 1.11D-02
 ErrMax= 1.11D-02 EMaxC= 1.00D-01 BMatC= 4.74D-03 BMatP= 1.09D-01
 IDIUse=3 WtCom= 8.89D-01 WtEn= 1.11D-01
 Coeff-Com:  0.112D+00 0.888D+00
 Coeff-En:   0.191D+00 0.809D+00
 Coeff:      0.121D+00 0.879D+00
 Gap=     0.352 Goal=   None    Shift=    0.000
 RMSDP=1.67D-03 MaxDP=1.73D-02 DE=-5.14D-02 OVMax= 1.15D-01

 Cycle   3  Pass 1  IDiag  1:
 E= -79.8100595693848     Delta-E=       -0.073171050719 Rises=F Damp=F
 DIIS: error= 1.70D-03 at cycle   3 NSaved=   3.
 NSaved= 3 IEnMin= 3 EnMin= -79.8100595693848     IErMin= 3 ErrMin= 1.70D-03
 ErrMax= 1.70D-03 EMaxC= 1.00D-01 BMatC= 2.33D-04 BMatP= 4.74D-03
 IDIUse=3 WtCom= 9.83D-01 WtEn= 1.70D-02
 Coeff-Com:  0.933D-02 0.143D+00 0.847D+00
 Coeff-En:   0.000D+00 0.000D+00 0.100D+01
 Coeff:      0.917D-02 0.141D+00 0.850D+00
 Gap=     0.339 Goal=   None    Shift=    0.000
 RMSDP=3.18D-04 MaxDP=2.69D-03 DE=-7.32D-02 OVMax= 5.15D-03

 Cycle   4  Pass 1  IDiag  1:
 E= -79.8102648016389     Delta-E=       -0.000205232254 Rises=F Damp=F
 DIIS: error= 5.56D-04 at cycle   4 NSaved=   4.
 NSaved= 4 IEnMin= 4 EnMin= -79.8102648016389     IErMin= 4 ErrMin= 5.56D-04
 ErrMax= 5.56D-04 EMaxC= 1.00D-01 BMatC= 2.10D-05 BMatP= 2.33D-04
 IDIUse=3 WtCom= 9.94D-01 WtEn= 5.56D-03
 Coeff-Com: -0.592D-04 0.252D-02 0.218D+00 0.779D+00
 Coeff-En:   0.000D+00 0.000D+00 0.000D+00 0.100D+01
 Coeff:     -0.588D-04 0.250D-02 0.217D+00 0.780D+00
 Gap=     0.339 Goal=   None    Shift=    0.000
 RMSDP=8.23D-05 MaxDP=1.12D-03 DE=-2.05D-04 OVMax= 1.87D-03

 Cycle   5  Pass 1  IDiag  1:
 E= -79.8102807612596     Delta-E=       -0.000015959621 Rises=F Damp=F
 DIIS: error= 2.78D-04 at cycle   5 NSaved=   5.
 NSaved= 5 IEnMin= 5 EnMin= -79.8102807612596     IErMin= 5 ErrMin= 2.78D-04
 ErrMax= 2.78D-04 EMaxC= 1.00D-01 BMatC= 4.79D-06 BMatP= 2.10D-05
 IDIUse=3 WtCom= 9.97D-01 WtEn= 2.78D-03
 Coeff-Com: -0.839D-04-0.308D-02 0.921D-01 0.422D+00 0.489D+00
 Coeff-En:   0.000D+00 0.000D+00 0.000D+00 0.700D-01 0.930D+00
 Coeff:     -0.836D-04-0.307D-02 0.919D-01 0.421D+00 0.490D+00
 Gap=     0.339 Goal=   None    Shift=    0.000
 RMSDP=2.73D-05 MaxDP=5.03D-04 DE=-1.60D-05 OVMax= 6.76D-04

 Cycle   6  Pass 1  IDiag  1:
 E= -79.8102854717917     Delta-E=       -0.000004710532 Rises=F Damp=F
 DIIS: error= 1.57D-05 at cycle   6 NSaved=   6.
 NSaved= 6 IEnMin= 6 EnMin= -79.8102854717917     IErMin= 6 ErrMin= 1.57D-05
 ErrMax= 1.57D-05 EMaxC= 1.00D-01 BMatC= 2.01D-08 BMatP= 4.79D-06
 IDIUse=1 WtCom= 1.00D+00 WtEn= 0.00D+00
 Coeff-Com:  0.188D-03-0.602D-03 0.633D-02 0.345D-01 0.765D-01 0.883D+00
 Coeff:      0.188D-03-0.602D-03 0.633D-02 0.345D-01 0.765D-01 0.883D+00
 Gap=     0.339 Goal=   None    Shift=    0.000
 RMSDP=2.72D-06 MaxDP=3.81D-05 DE=-4.71D-06 OVMax= 5.61D-05

 Cycle   7  Pass 1  IDiag  1:
 E= -79.8102854930177     Delta-E=       -0.000000021226 Rises=F Damp=F
 DIIS: error= 3.19D-06 at cycle   7 NSaved=   7.
 NSaved= 7 IEnMin= 7 EnMin= -79.8102854930177     IErMin= 7 ErrMin= 3.19D-06
 ErrMax= 3.19D-06 EMaxC= 1.00D-01 BMatC= 1.09D-09 BMatP= 2.01D-08
 IDIUse=1 WtCom= 1.00D+00 WtEn= 0.00D+00
 Coeff-Com:  0.753D-04-0.106D-03-0.151D-02-0.497D-02 0.559D-02 0.277D+00
 Coeff-Com:  0.724D+00
 Coeff:      0.753D-04-0.106D-03-0.151D-02-0.497D-02 0.559D-02 0.277D+00
 Coeff:      0.724D+00
 Gap=     0.339 Goal=   None    Shift=    0.000
 RMSDP=7.36D-07 MaxDP=7.08D-06 DE=-2.12D-08 OVMax= 1.28D-05

 Cycle   8  Pass 1  IDiag  1:
 E= -79.8102854942886     Delta-E=       -0.000000001271 Rises=F Damp=F
 DIIS: error= 2.47D-07 at cycle   8 NSaved=   8.
 NSaved= 8 IEnMin= 8 EnMin= -79.8102854942886     IErMin= 8 ErrMin= 2.47D-07
 ErrMax= 2.47D-07 EMaxC= 1.00D-01 BMatC= 6.37D-12 BMatP= 1.09D-09
 IDIUse=1 WtCom= 1.00D+00 WtEn= 0.00D+00
 Coeff-Com:  0.281D-05-0.153D-05-0.260D-03-0.100D-02-0.913D-03 0.139D-01
 Coeff-Com:  0.855D-01 0.903D+00
 Coeff:      0.281D-05-0.153D-05-0.260D-03-0.100D-02-0.913D-03 0.139D-01
 Coeff:      0.855D-01 0.903D+00
 Gap=     0.339 Goal=   None    Shift=    0.000
 RMSDP=7.24D-08 MaxDP=8.95D-07 DE=-1.27D-09 OVMax= 1.42D-06

 Cycle   9  Pass 1  IDiag  1:
 E= -79.8102854942969     Delta-E=       -0.000000000008 Rises=F Damp=F
 DIIS: error= 3.32D-08 at cycle   9 NSaved=   9.
 NSaved= 9 IEnMin= 9 EnMin= -79.8102854942969     IErMin= 9 ErrMin= 3.32D-08
 ErrMax= 3.32D-08 EMaxC= 1.00D-01 BMatC= 1.56D-13 BMatP= 6.37D-12
 IDIUse=1 WtCom= 1.00D+00 WtEn= 0.00D+00
 Coeff-Com: -0.860D-06 0.972D-06-0.253D-04-0.104D-03-0.208D-03-0.153D-02
 Coeff-Com:  0.601D-02 0.170D+00 0.826D+00
 Coeff:     -0.860D-06 0.972D-06-0.253D-04-0.104D-03-0.208D-03-0.153D-02
 Coeff:      0.601D-02 0.170D+00 0.826D+00
 Gap=     0.339 Goal=   None    Shift=    0.000
 RMSDP=1.12D-08 MaxDP=1.08D-07 DE=-8.28D-12 OVMax= 1.65D-07

 Cycle  10  Pass 1  IDiag  1:
 E= -79.8102854942965     Delta-E=        0.000000000000 Rises=F Damp=F
 DIIS: error= 5.83D-09 at cycle  10 NSaved=  10.
 NSaved=10 IEnMin= 9 EnMin= -79.8102854942969     IErMin=10 ErrMin= 5.83D-09
 ErrMax= 5.83D-09 EMaxC= 1.00D-01 BMatC= 2.99D-15 BMatP= 1.56D-13
 IDIUse=1 WtCom= 1.00D+00 WtEn= 0.00D+00
 Coeff-Com: -0.227D-06 0.225D-06-0.169D-06-0.370D-05-0.236D-04-0.570D-03
 Coeff-Com: -0.449D-03 0.152D-01 0.152D+00 0.833D+00
 Coeff:     -0.227D-06 0.225D-06-0.169D-06-0.370D-05-0.236D-04-0.570D-03
 Coeff:     -0.449D-03 0.152D-01 0.152D+00 0.833D+00
 Gap=     0.339 Goal=   None    Shift=    0.000
 RMSDP=1.39D-09 MaxDP=1.23D-08 DE= 3.98D-13 OVMax= 2.14D-08

 SCF Done:  E(RB3LYP) =  -79.8102854943     A.U. after   10 cycles
             Convg  =    0.1390D-08             -V/T =  2.0110
 KE= 7.893866327912D+01 PE=-2.673573261171D+02 EE= 6.674836083649D+01
 Leave Link  502 at Wed May 26 19:15:22 2021, MaxMem=   13107200 cpu:       6.5
 (Enter /programs/64bit/g09/g09-gfortran/bin/l601.exe)
 Copying SCF densities to generalized density rwf, IOpCl= 0 IROHF=0.

 **********************************************************************

            Population analysis using the SCF density.

 **********************************************************************

 Alpha  occ. eigenvalues --  -10.18746 -10.17992  -0.75601  -0.62079  -0.44731
 Alpha  occ. eigenvalues --   -0.42781  -0.37613  -0.33901  -0.32462
 Alpha virt. eigenvalues --    0.01435   0.02701   0.05257   0.05568   0.07882
 Alpha virt. eigenvalues --    0.08837   0.09050   0.13756   0.14399   0.18592
 Alpha virt. eigenvalues --    0.21644   0.23985   0.24982   0.28567   0.32769
 Alpha virt. eigenvalues --    0.63654   0.63886   0.65283   0.66854   0.69329
 Alpha virt. eigenvalues --    0.69770   0.88892   0.91703   0.94594   0.96901
 Alpha virt. eigenvalues --    1.04742   1.09811   1.10833   1.26038   1.35837
 Alpha virt. eigenvalues --    1.37071   1.62203   1.77136   1.81671   1.96194
 Alpha virt. eigenvalues --    2.04400   2.06392   2.12097   2.12506   2.20324
 Alpha virt. eigenvalues --    2.24077   2.30136   2.36651   2.45427   2.51425
 Alpha virt. eigenvalues --    2.65783   2.75042   2.77179   2.80750   2.87397
 Alpha virt. eigenvalues --    2.95755   3.19335   3.29341   3.39861   3.41998
 Alpha virt. eigenvalues --    3.49999   3.55332   4.34281   4.60567
          Condensed to atoms (all electrons):
              1          2          3          4          5          6
     1  C    5.164411   0.222008   0.377787   0.418486   0.402773  -0.057023
     2  C    0.222008   5.126099  -0.003780  -0.085551  -0.033658   0.409756
     3  H    0.377787  -0.003780   0.546058  -0.036917  -0.033416   0.003886
     4  H    0.418486  -0.085551  -0.036917   0.619629  -0.032845  -0.004832
     5  H    0.402773  -0.033658  -0.033416  -0.032845   0.553139  -0.009965
     6  H   -0.057023   0.409756   0.003886  -0.004832  -0.009965   0.572875
     7  H   -0.075577   0.439341  -0.000452  -0.016844   0.004559  -0.041482
     8  H   -0.023429   0.385411  -0.002833   0.006188  -0.000029  -0.025704
              7          8
     1  C   -0.075577  -0.023429
     2  C    0.439341   0.385411
     3  H   -0.000452  -0.002833
     4  H   -0.016844   0.006188
     5  H    0.004559  -0.000029
     6  H   -0.041482  -0.025704
     7  H    0.557929  -0.021234
     8  H   -0.021234   0.530613
 Mulliken atomic charges:
              1
     1  C   -0.429435
     2  C   -0.459625
     3  H    0.149666
     4  H    0.132686
     5  H    0.149442
     6  H    0.152488
     7  H    0.153761
     8  H    0.151017
 Sum of Mulliken atomic charges =   0.00000
 Mulliken charges with hydrogens summed into heavy atoms:
              1
     1  C    0.002360
     2  C   -0.002360
 Sum of Mulliken charges with hydrogens summed into heavy atoms =   0.00000
 Electronic spatial extent (au):  <R**2>=            150.1798
 Charge=              0.0000 electrons
 Dipole moment (field-independent basis, Debye):
    X=             -0.1944    Y=             -0.2355    Z=              0.0492  Tot=              0.3093
 Quadrupole moment (field-independent basis, Debye-Ang):
   XX=            -15.4138   YY=            -15.1794   ZZ=            -15.3995
   XY=              0.0127   XZ=             -0.2681   YZ=             -0.2138
 Traceless Quadrupole moment (field-independent basis, Debye-Ang):
   XX=             -0.0829   YY=              0.1515   ZZ=             -0.0686
   XY=              0.0127   XZ=             -0.2681   YZ=             -0.2138
 Octapole moment (field-independent basis, Debye-Ang**2):
  XXX=              0.8794  YYY=              1.2287  ZZZ=            -36.8549  XYY=              0.7639
  XXY=              0.9186  XXZ=            -12.0590  XZZ=              0.7884  YZZ=              0.9826
  YYZ=            -10.4889  XYZ=              0.6990
 Hexadecapole moment (field-independent basis, Debye-Ang**3):
 XXXX=            -31.1230 YYYY=            -31.2241 ZZZZ=           -158.0647 XXXY=             -0.3736
 XXXZ=              0.2844 YYYX=              0.0614 YYYZ=              0.1628 ZZZX=              1.8381
 ZZZY=              1.8296 XXYY=            -10.8194 XXZZ=            -30.5437 YYZZ=            -29.0441
 XXYZ=              0.3962 YYXZ=              1.3328 ZZXY=              0.9776
 N-N= 4.186001650717D+01 E-N=-2.673573260838D+02  KE= 7.893866327912D+01
 No NMR shielding tensors so no spin-rotation constants.
 Leave Link  601 at Wed May 26 19:15:22 2021, MaxMem=   13107200 cpu:       0.0
 (Enter /programs/64bit/g09/g09-gfortran/bin/l701.exe)
 Compute integral first derivatives.
 ... and contract with generalized density number  0.
 Leave Link  701 at Wed May 26 19:15:22 2021, MaxMem=   13107200 cpu:       0.1
 (Enter /programs/64bit/g09/g09-gfortran/bin/l702.exe)
 L702 exits ... SP integral derivatives will be done elsewhere.
 Leave Link  702 at Wed May 26 19:15:22 2021, MaxMem=   13107200 cpu:       0.0
 (Enter /programs/64bit/g09/g09-gfortran/bin/l703.exe)
 Compute integral first derivatives, UseDBF=F ICtDFT=           0.
 Integral derivatives from FoFDir, PRISM(SPDF).
 Calling FoFJK, ICntrl=      2127 FMM=F ISym2X=0 I1Cent= 0 IOpClX= 0 NMat=1 NMatS=1 NMatT=0.
 FoFCou: FMM=F IPFlag=           0 FMFlag=      100000 FMFlg1=         800
         NFxFlg=           0 DoJE=F BraDBF=F KetDBF=F FulRan=T
         Omega=  0.000000  0.000000  1.000000  0.000000  0.000000 ICntrl=    2127 IOpCl=  0
         NMat0=    1 NMatS0=    1 NMatT0=    0 NMatD0=    1 NMtDS0=    0 NMtDT0=    0
         I1Cent=           0 NGrid=           0.
 Symmetry not used in FoFCou.
 Leave Link  703 at Wed May 26 19:15:23 2021, MaxMem=   13107200 cpu:       1.4
 (Enter /programs/64bit/g09/g09-gfortran/bin/l716.exe)
 Dipole        =-7.64932754D-02-9.26335149D-02 1.93547919D-02
 -------------------------------------------------------------------
 Center     Atomic                   Forces (Hartrees/Bohr)
 Number     Number              X              Y              Z
 -------------------------------------------------------------------
      1        6          -0.017072271   -0.048164147   -0.005596304
      2        6          -0.017283168    0.006742593   -0.027172771
      3        1           0.014593197    0.013371559    0.018489541
      4        1          -0.004925679    0.004071280   -0.020083632
      5        1           0.000374645    0.010699056    0.008515651
      6        1           0.001976688    0.009638894    0.009486458
      7        1           0.018196262    0.007240515    0.011474309
      8        1           0.004140327   -0.003599751    0.004886749
 -------------------------------------------------------------------
 Cartesian Forces:  Max     0.048164147 RMS     0.015607175
 -----------------------------------------------------------------------------------------------
                       Internal Coordinate Forces (Hartree/Bohr or radian)
  Cent   Atom   N1       Length/X         N2         Alpha/Y        N3         Beta/Z          J
 -----------------------------------------------------------------------------------------------
      1  C 
      2  C        1  -0.001325(     1)
      3  H        1  -0.001465(     2)      2  -0.048734(     8)
      4  H        1  -0.002113(     3)      2   0.042303(     9)      3   0.012106(    14)     0
      5  H        1   0.000449(     4)      2  -0.020359(    10)      3   0.017358(    15)     0
      6  H        2  -0.000260(     5)      1   0.020068(    11)      3   0.008804(    16)     0
      7  H        2   0.000209(     6)      1   0.024466(    12)      6   0.038384(    17)     0
      8  H        2   0.001422(     7)      1   0.009818(    13)      6  -0.009794(    18)     0
 -----------------------------------------------------------------------------------------------
 Internal  Forces:  Max     0.048734027 RMS     0.020792667
 Force constants in Cartesian coordinates: 
                1             2             3             4             5 
      1  0.626616D+00
      2 -0.328668D-01  0.563982D+00
      3 -0.299986D-01 -0.432489D-01  0.695305D+00
      4 -0.979091D-01 -0.156910D-02  0.625332D-02  0.613900D+00
      5 -0.163565D-02 -0.872438D-01  0.120128D-01  0.478231D-01  0.705983D+00
      6 -0.750052D-02 -0.421339D-02 -0.260864D+00  0.487625D-01  0.392654D-01
      7 -0.222179D+00  0.467164D-02  0.113186D+00  0.177670D-01  0.689110D-03
      8  0.174306D-01 -0.723842D-01 -0.674112D-02  0.103408D-02  0.573531D-02
      9  0.131759D+00  0.521602D-02 -0.213812D+00  0.198373D-01  0.769411D-03
     10 -0.765479D-01 -0.673087D-01 -0.347374D-03  0.338338D-03 -0.665273D-04
     11 -0.626958D-01 -0.307788D+00 -0.822331D-02  0.115158D-03  0.823781D-03
     12 -0.411172D-02 -0.240724D-01 -0.681293D-01 -0.621106D-02 -0.249955D-01
     13 -0.241277D+00  0.939268D-01 -0.890937D-01  0.992159D-02 -0.307447D-02
     14  0.766308D-01 -0.113201D+00  0.462005D-01 -0.363331D-02  0.753504D-02
     15 -0.976489D-01  0.621053D-01 -0.152500D+00 -0.198796D-01  0.122132D-01
     16  0.431729D-02 -0.624207D-04  0.000000D+00 -0.329554D+00  0.131144D-02
     17 -0.274654D-03  0.182605D-03  0.000000D+00 -0.472609D-02 -0.756996D-01
     18  0.256581D-01 -0.383706D-03  0.000000D+00  0.508256D-01 -0.109126D-01
     19  0.210789D-02 -0.139060D-02  0.000000D+00 -0.836249D-01  0.388064D-01
     20 -0.124593D-02  0.682601D-02  0.000000D+00  0.502581D-01 -0.317333D+00
     21 -0.594022D-02  0.245999D-01  0.000000D+00 -0.327779D-01  0.714226D-01
     22  0.487162D-02  0.459921D-02  0.000000D+00 -0.130839D+00 -0.838534D-01
     23  0.465737D-02  0.962669D-02  0.000000D+00 -0.893019D-01 -0.239801D+00
     24 -0.122174D-01 -0.200028D-01  0.000000D+00 -0.668103D-01 -0.997754D-01
                6             7             8             9            10 
      6  0.580907D+00
      7  0.000000D+00  0.219447D+00
      8  0.000000D+00 -0.446154D-02  0.528927D-01
      9  0.000000D+00 -0.134810D+00 -0.498144D-02  0.189668D+00
     10  0.000000D+00 -0.305738D-02 -0.261409D-01 -0.341365D-02  0.659609D-01
     11  0.000000D+00  0.666617D-03  0.580498D-02  0.744296D-03  0.655162D-01
     12  0.000000D+00  0.324692D-02  0.244987D-01  0.362528D-02 -0.507434D-03
     13  0.000000D+00 -0.119770D-01  0.121551D-01 -0.133727D-01  0.133185D-01
     14  0.000000D+00 -0.156583D-02  0.780870D-02 -0.174829D-02  0.278982D-01
     15  0.000000D+00  0.183769D-01 -0.127761D-01  0.205183D-01  0.426846D-02
     16  0.446487D-01  0.000000D+00  0.872975D-05  0.000000D+00  0.623193D-05
     17 -0.977546D-02  0.000000D+00  0.727304D-03  0.000000D+00  0.519203D-03
     18 -0.722095D-01  0.000000D+00  0.000000D+00  0.000000D+00  0.000000D+00
     19 -0.279407D-01  0.000000D+00 -0.732148D-03  0.000000D+00 -0.522660D-03
     20  0.655123D-01  0.000000D+00 -0.166240D-03  0.000000D+00 -0.118674D-03
     21 -0.993691D-01  0.000000D+00  0.000000D+00  0.000000D+00  0.000000D+00
     22 -0.579700D-01  0.000000D+00  0.706049D-03  0.000000D+00  0.504029D-03
     23 -0.907889D-01  0.000000D+00 -0.418480D-03  0.000000D+00 -0.298742D-03
     24 -0.148464D+00  0.000000D+00  0.000000D+00  0.000000D+00  0.000000D+00
               11            12            13            14            15 
     11  0.308739D+00
     12  0.863598D-02  0.620278D-01
     13 -0.360537D-02  0.758329D-02  0.230006D+00
     14 -0.755374D-02  0.159332D-01 -0.993425D-01  0.105515D+00
     15 -0.115697D-02  0.247622D-02  0.948832D-01 -0.603854D-01  0.129506D+00
     16 -0.157245D-05  0.000000D+00 -0.364497D-05 -0.639820D-05  0.000000D+00
     17 -0.131006D-03  0.000000D+00 -0.303675D-03 -0.533055D-03  0.000000D+00
     18  0.000000D+00  0.000000D+00  0.000000D+00  0.000000D+00  0.000000D+00
     19  0.131879D-03  0.000000D+00  0.305697D-03  0.536605D-03  0.000000D+00
     20  0.299441D-04  0.000000D+00  0.694109D-04  0.121840D-03  0.000000D+00
     21  0.000000D+00  0.000000D+00  0.000000D+00  0.000000D+00  0.000000D+00
     22 -0.127178D-03  0.000000D+00 -0.294800D-03 -0.517477D-03  0.000000D+00
     23  0.753791D-04  0.000000D+00  0.174730D-03  0.306712D-03  0.000000D+00
     24  0.000000D+00  0.000000D+00  0.000000D+00  0.000000D+00  0.000000D+00
               16            17            18            19            20 
     16  0.330194D+00
     17 -0.218944D-02  0.603973D-01
     18 -0.465302D-01  0.678931D-02  0.612491D-01
     19 -0.146471D-02  0.342608D-01 -0.111404D-01  0.695453D-01
     20 -0.216706D-03  0.552432D-02 -0.168070D-02 -0.554289D-01  0.313587D+00
     21  0.399108D-03 -0.776690D-02  0.292375D-02  0.259785D-01 -0.713266D-01
     22 -0.349548D-02 -0.272861D-01 -0.188132D-01  0.136534D-01  0.668276D-02
     23  0.115637D-02  0.953214D-02  0.618773D-02 -0.161840D-01 -0.858944D-02
     24  0.148235D-02  0.107531D-01  0.803658D-02  0.131026D-01  0.749501D-02
               21            22            23            24 
     21  0.808763D-01
     22  0.123405D-01  0.115601D+00
     23 -0.169289D-01  0.997961D-01  0.229268D+00
     24  0.155690D-01  0.644427D-01  0.101530D+00  0.124859D+00
 Force constants in internal coordinates: 
                1             2             3             4             5 
      1  0.260864D+00
      2  0.000000D+00  0.340187D+00
      3  0.000000D+00  0.000000D+00  0.325549D+00
      4  0.000000D+00  0.000000D+00  0.000000D+00  0.343834D+00
      5  0.000000D+00  0.000000D+00  0.000000D+00  0.000000D+00  0.338056D+00
      6  0.000000D+00  0.000000D+00  0.000000D+00  0.000000D+00  0.000000D+00
      7  0.000000D+00  0.000000D+00  0.000000D+00  0.000000D+00  0.000000D+00
      8  0.000000D+00  0.000000D+00  0.000000D+00  0.000000D+00  0.000000D+00
      9  0.000000D+00  0.000000D+00  0.000000D+00  0.000000D+00  0.000000D+00
     10  0.000000D+00  0.000000D+00  0.000000D+00  0.000000D+00  0.000000D+00
     11  0.000000D+00  0.000000D+00  0.000000D+00  0.000000D+00  0.000000D+00
     12  0.000000D+00  0.000000D+00  0.000000D+00  0.000000D+00  0.000000D+00
     13  0.000000D+00  0.000000D+00  0.000000D+00  0.000000D+00  0.000000D+00
     14  0.000000D+00  0.000000D+00  0.000000D+00  0.000000D+00  0.000000D+00
     15  0.000000D+00  0.000000D+00  0.000000D+00  0.000000D+00  0.000000D+00
     16  0.000000D+00  0.000000D+00  0.000000D+00  0.000000D+00  0.000000D+00
     17  0.000000D+00  0.000000D+00  0.000000D+00  0.000000D+00  0.000000D+00
     18  0.000000D+00  0.000000D+00  0.000000D+00  0.000000D+00  0.000000D+00
                6             7             8             9            10 
      6  0.346879D+00
      7  0.000000D+00  0.351117D+00
      8  0.000000D+00  0.000000D+00  0.296199D+00
      9  0.000000D+00  0.000000D+00  0.211805D-01  0.271989D+00
     10  0.000000D+00  0.000000D+00  0.133246D+00  0.121314D-01  0.301727D+00
     11  0.000000D+00  0.000000D+00  0.000000D+00  0.000000D+00  0.000000D+00
     12  0.000000D+00  0.000000D+00  0.000000D+00  0.000000D+00  0.000000D+00
     13  0.000000D+00  0.000000D+00  0.000000D+00  0.000000D+00  0.000000D+00
     14  0.000000D+00  0.000000D+00 -0.203819D-01 -0.114699D-01  0.216419D-01
     15  0.000000D+00  0.000000D+00  0.414619D-01 -0.676356D-01  0.235027D-01
     16  0.000000D+00  0.000000D+00  0.000000D+00  0.000000D+00  0.000000D+00
     17  0.000000D+00  0.000000D+00  0.000000D+00  0.000000D+00  0.000000D+00
     18  0.000000D+00  0.000000D+00  0.000000D+00  0.000000D+00  0.000000D+00
               11            12            13            14            15 
     11  0.230279D+00
     12  0.131935D-01  0.253183D+00
     13  0.393798D-01  0.776319D-01  0.257604D+00
     14  0.000000D+00  0.000000D+00  0.000000D+00  0.217350D+00
     15  0.000000D+00  0.000000D+00  0.000000D+00 -0.122631D+00  0.169458D+00
     16  0.974838D-04 -0.232759D-03 -0.167535D-03  0.690000D-02  0.690000D-02
     17 -0.469405D-01  0.405582D-01  0.666452D-01  0.230000D-02  0.230000D-02
     18  0.739048D-01 -0.748497D-01 -0.154935D-01  0.230000D-02  0.230000D-02
               16            17            18 
     16  0.208338D-01
     17  0.769459D-02  0.226593D+00
     18  0.599014D-02 -0.782813D-01  0.189715D+00
 Leave Link  716 at Wed May 26 19:15:23 2021, MaxMem=   13107200 cpu:       0.0
 (Enter /programs/64bit/g09/g09-gfortran/bin/l103.exe)

 GradGradGradGradGradGradGradGradGradGradGradGradGradGradGradGradGradGrad
 Berny optimization.
 Search for a local minimum.
 Step number   1 out of a maximum of    2
 All quantities printed in internal units (Hartrees-Bohrs-Radians)
 Second derivative matrix not updated -- first step.
 The second derivative matrix:
                          d1        a1        t1        d2        a2
           d1           0.26086
           a1           0.00000   0.29620
           t1           0.00000  -0.02038   0.21735
           d2           0.00000  -0.00000   0.00000   0.34019
           a2          -0.00000   0.02118  -0.01147  -0.00000   0.27199
           t2           0.00000   0.04146  -0.12263  -0.00000  -0.06764
           d3           0.00000   0.00000   0.00000   0.00000   0.00000
           d4          -0.00000   0.00000   0.00000  -0.00000   0.00000
           a3           0.00000   0.13325   0.02164  -0.00000   0.01213
           d5           0.00000   0.00000   0.00000   0.00000   0.00000
           a4          -0.00000   0.00000  -0.00000   0.00000  -0.00000
           t3          -0.00000   0.00000   0.00690   0.00000   0.00000
           d6          -0.00000   0.00000   0.00000   0.00000   0.00000
           a5          -0.00000   0.00000   0.00000   0.00000  -0.00000
           t4          -0.00000   0.00000   0.00230   0.00000  -0.00000
           d7           0.00000   0.00000   0.00000   0.00000  -0.00000
           a6          -0.00000   0.00000  -0.00000   0.00000   0.00000
           t5          -0.00000   0.00000   0.00230   0.00000   0.00000
                          t2        d3        d4        a3        d5
           t2           0.16946
           d3          -0.00000   0.32555
           d4          -0.00000   0.00000   0.34383
           a3           0.02350   0.00000  -0.00000   0.30173
           d5           0.00000  -0.00000   0.00000  -0.00000   0.33806
           a4          -0.00000   0.00000  -0.00000   0.00000   0.00000
           t3           0.00690  -0.00000  -0.00000   0.00000   0.00000
           d6           0.00000  -0.00000   0.00000  -0.00000  -0.00000
           a5          -0.00000   0.00000  -0.00000   0.00000  -0.00000
           t4           0.00230  -0.00000   0.00000  -0.00000  -0.00000
           d7          -0.00000   0.00000  -0.00000   0.00000   0.00000
           a6           0.00000  -0.00000   0.00000  -0.00000  -0.00000
           t5           0.00230   0.00000  -0.00000   0.00000   0.00000
                          a4        t3        d6        a5        t4
           a4           0.23028
           t3           0.00010   0.02083
           d6           0.00000   0.00000   0.34688
           a5           0.01319  -0.00023   0.00000   0.25318
           t4          -0.04694   0.00769   0.00000   0.04056   0.22659
           d7           0.00000  -0.00000   0.00000   0.00000   0.00000
           a6           0.03938  -0.00017   0.00000   0.07763   0.06665
           t5           0.07390   0.00599   0.00000  -0.07485  -0.07828
                          d7        a6        t5
           d7           0.35112
           a6           0.00000   0.25760
           t5          -0.00000  -0.01549   0.18972
     Eigenvalues --- 1000.000001000.000001000.000001000.000001000.00000
     Eigenvalues --- 1000.000001000.000001000.000001000.000001000.00000
     Eigenvalues --- 1000.000001000.000001000.000001000.000001000.00000
     Eigenvalues --- 1000.000001000.000001000.00000
 Angle between quadratic step and forces=  90.00 degrees.
 Linear search not attempted -- first point.
 Variable       Old X    -DE/DX   Delta X   Delta X   Delta X     New X
                                 (Linear)    (Quad)   (Total)
    d1        2.96523  -0.00133   0.00000   0.00000   0.00000   2.96523
    a1        2.30119  -0.04873   0.00000   0.00000   0.00000   2.30119
    t1        1.81796   0.01211   0.00000   0.00000   0.00000   1.81796
    d2        2.07298  -0.00146   0.00000   0.00000   0.00000   2.07298
    a2        1.60209   0.04230   0.00000   0.00000   0.00000   1.60209
    t2       -2.62376   0.01736   0.00000   0.00000   0.00000  -2.62376
    d3        2.09840  -0.00211   0.00000   0.00000   0.00000   2.09840
    d4        2.06688   0.00045   0.00000   0.00000   0.00000   2.06688
    a3        2.05355  -0.02036   0.00000   0.00000   0.00000   2.05355
    d5        2.07659  -0.00026   0.00000   0.00000   0.00000   2.07659
    a4        1.73761   0.02007   0.00000   0.00000   0.00000   1.73761
    t3        3.12959   0.00880   0.00000   0.00000   0.00000   3.12959
    d6        2.06185   0.00021   0.00000   0.00000   0.00000   2.06185
    a5        1.84669   0.02447   0.00000   0.00000   0.00000   1.84669
    t4        1.80607   0.03838   0.00000   0.00000   0.00000   1.80607
    d7        2.05494   0.00142   0.00000   0.00000   0.00000   2.05494
    a6        2.05913   0.00982   0.00000   0.00000   0.00000   2.05913
    t5       -2.09383  -0.00979   0.00000   0.00000   0.00000  -2.09383
         Item               Value     Threshold  Converged?
 Maximum Force            0.000000     0.000450     YES
 RMS     Force            0.000000     0.000300     YES
 Maximum Displacement     0.000000     0.001800     YES
 RMS     Displacement     0.000000     0.001200     YES
 Predicted change in Energy=-0.000000D+00
 Optimization completed.
    -- Stationary point found.
                       ----------------------------
                       !   Optimized Parameters   !
                       ! (Angstroms and Degrees)  !
 ----------------------                            ----------------------
 !      Name          Value   Derivative information (Atomic Units)     !
 ------------------------------------------------------------------------
 !       d1          1.5691   -DE/DX =   -0.0013                        !
 !       a1        131.8487   -DE/DX =   -0.0487                        !
 !       t1        104.1614   -DE/DX =    0.0121                        !
 !       d2          1.097    -DE/DX =   -0.0015                        !
 !       a2         91.793    -DE/DX =    0.0423                        !
 !       t2       -150.3304   -DE/DX =    0.0174                        !
 !       d3          1.1104   -DE/DX =   -0.0021                        !
 !       d4          1.0937   -DE/DX =    0.0004                        !
 !       a3        117.66     -DE/DX =   -0.0204                        !
 !       d5          1.0989   -DE/DX =   -0.0003                        !
 !       a4         99.5577   -DE/DX =    0.0201                        !
 !       t3        179.3123   -DE/DX =    0.0088                        !
 !       d6          1.0911   -DE/DX =    0.0002                        !
 !       a5        105.8074   -DE/DX =    0.0245                        !
 !       t4        103.4802   -DE/DX =    0.0384                        !
 !       d7          1.0874   -DE/DX =    0.0014                        !
 !       a6        117.9792   -DE/DX =    0.0098                        !
 !       t5       -119.9678   -DE/DX =   -0.0098                        !
 ------------------------------------------------------------------------
 GradGradGradGradGradGradGradGradGradGradGradGradGradGradGradGradGradGrad

 Leave Link  103 at Wed May 26 19:15:23 2021, MaxMem=   13107200 cpu:       0.0
 (Enter /programs/64bit/g09/g09-gfortran/bin/l9999.exe)
 1\1\GINC-MOLMOD\Force\RB3LYP\6-31+G(d,p)\C2H6\OSPITE\26-May-2021\1\\#p
  b3lyp/6-31+g(d,p) force nosym\\c2h6 molecule\\0,1\C\C,1,d1\H,1,d2,2,a
 1\H,1,d3,2,a2,3,t1,0\H,1,d4,2,a3,3,t2,0\H,2,d5,1,a4,3,t3,0\H,2,d6,1,a5
 ,6,t4,0\H,2,d7,1,a6,6,t5,0\\d1=1.56913386\a1=131.84870381\t1=104.16139
 576\d2=1.09697621\a2=91.79302798\t2=-150.33039655\d3=1.1104264\d4=1.09
 374472\a3=117.6599576\d5=1.09888647\a4=99.55773801\t3=179.31231866\d6=
 1.09108158\a5=105.80739328\t4=103.48024989\d7=1.08742645\a6=117.979233
 51\t5=-119.96784986\\Version=EM64L-G09RevA.02\HF=-79.8102855\RMSD=1.39
 0e-09\RMSF=1.561e-02\Dipole=-0.0764933,-0.0926335,0.0193548\Quadrupole
 =-0.0616511,0.1126381,-0.050987,0.0094326,-0.1993279,-0.1589414\PG=C01
  [X(C2H6)]\\@


 ALL OUR THINKING ABOUT NATURE MUST NECESSARILY MOVE IN CIRCLES OR SPIRALS;
 FOR WE CAN ONLY UNDERSTAND NATURE IF WE THINK ABOUT HER, AND WE CAN ONLY
 THINK BECAUSE OUR BRAIN IS BUILT IN ACCORDANCE WITH NATURE'S LAWS.

                                             -- TIMOTHY FERRIS, "GALAXIES"
 Job cpu time:  0 days  0 hours  0 minutes  9.0 seconds.
 File lengths (MBytes):  RWF=      5 Int=      0 D2E=      0 Chk=      1 Scr=      1
 Normal termination of Gaussian 09 at Wed May 26 19:15:23 2021.
