 Entering Gaussian System, Link 0=g09
 Input=c2h6_050.com
 Output=c2h6_050.log
 Initial command:
 /programs/64bit/g09/g09-gfortran/bin/l1.exe /data/scratch/Gau-7112.inp -scrdir=/data/scratch/
 Entering Link 1 = /programs/64bit/g09/g09-gfortran/bin/l1.exe PID=      7113.
  
 Copyright (c) 1988,1990,1992,1993,1995,1998,2003,2009, Gaussian, Inc.
                  All Rights Reserved.
  
 This is part of the Gaussian(R) 09 program.  It is based on
 the Gaussian(R) 03 system (copyright 2003, Gaussian, Inc.),
 the Gaussian(R) 98 system (copyright 1998, Gaussian, Inc.),
 the Gaussian(R) 94 system (copyright 1995, Gaussian, Inc.),
 the Gaussian 92(TM) system (copyright 1992, Gaussian, Inc.),
 the Gaussian 90(TM) system (copyright 1990, Gaussian, Inc.),
 the Gaussian 88(TM) system (copyright 1988, Gaussian, Inc.),
 the Gaussian 86(TM) system (copyright 1986, Carnegie Mellon
 University), and the Gaussian 82(TM) system (copyright 1983,
 Carnegie Mellon University). Gaussian is a federally registered
 trademark of Gaussian, Inc.
  
 This software contains proprietary and confidential information,
 including trade secrets, belonging to Gaussian, Inc.
  
 This software is provided under written license and may be
 used, copied, transmitted, or stored only in accord with that
 written license.
  
 The following legend is applicable only to US Government
 contracts under FAR:
  
                    RESTRICTED RIGHTS LEGEND
  
 Use, reproduction and disclosure by the US Government is
 subject to restrictions as set forth in subparagraphs (a)
 and (c) of the Commercial Computer Software - Restricted
 Rights clause in FAR 52.227-19.
  
 Gaussian, Inc.
 340 Quinnipiac St., Bldg. 40, Wallingford CT 06492
  
  
 ---------------------------------------------------------------
 Warning -- This program may not be used in any manner that
 competes with the business of Gaussian, Inc. or will provide
 assistance to any competitor of Gaussian, Inc.  The licensee
 of this program is prohibited from giving any competitor of
 Gaussian, Inc. access to this program.  By using this program,
 the user acknowledges that Gaussian, Inc. is engaged in the
 business of creating and licensing software in the field of
 computational chemistry and represents and warrants to the
 licensee that it is not a competitor of Gaussian, Inc. and that
 it will not use this program in any manner prohibited above.
 ---------------------------------------------------------------
  

 Cite this work as:
 Gaussian 09, Revision A.02,
 M. J. Frisch, G. W. Trucks, H. B. Schlegel, G. E. Scuseria, 
 M. A. Robb, J. R. Cheeseman, G. Scalmani, V. Barone, B. Mennucci, 
 G. A. Petersson, H. Nakatsuji, M. Caricato, X. Li, H. P. Hratchian, 
 A. F. Izmaylov, J. Bloino, G. Zheng, J. L. Sonnenberg, M. Hada, 
 M. Ehara, K. Toyota, R. Fukuda, J. Hasegawa, M. Ishida, T. Nakajima, 
 Y. Honda, O. Kitao, H. Nakai, T. Vreven, J. A. Montgomery, Jr., 
 J. E. Peralta, F. Ogliaro, M. Bearpark, J. J. Heyd, E. Brothers, 
 K. N. Kudin, V. N. Staroverov, R. Kobayashi, J. Normand, 
 K. Raghavachari, A. Rendell, J. C. Burant, S. S. Iyengar, J. Tomasi, 
 M. Cossi, N. Rega, J. M. Millam, M. Klene, J. E. Knox, J. B. Cross, 
 V. Bakken, C. Adamo, J. Jaramillo, R. Gomperts, R. E. Stratmann, 
 O. Yazyev, A. J. Austin, R. Cammi, C. Pomelli, J. W. Ochterski, 
 R. L. Martin, K. Morokuma, V. G. Zakrzewski, G. A. Voth, 
 P. Salvador, J. J. Dannenberg, S. Dapprich, A. D. Daniels, 
 O. Farkas, J. B. Foresman, J. V. Ortiz, J. Cioslowski, 
 and D. J. Fox, Gaussian, Inc., Wallingford CT, 2009.
 
 ******************************************
 Gaussian 09:  EM64L-G09RevA.02 11-Jun-2009
                26-May-2021 
 ******************************************
 %chk=c2h6_050.chk
 %mem=100MB
 --------------------------------
 #p b3lyp/6-31+g(d,p) force nosym
 --------------------------------
 1/10=7,30=1,38=1/1,3;
 2/12=2,15=1,17=6,18=5,40=1/2;
 3/5=1,6=6,7=111,11=2,16=1,25=1,30=1,71=1,74=-5/1,2,3;
 4//1;
 5/5=2,38=5/2;
 6/7=2,8=2,9=2,10=2,28=1/1;
 7/29=1,30=1/1,2,3,16;
 1/10=7,30=1/3;
 99//99;
 Leave Link    1 at Wed May 26 19:16:00 2021, MaxMem=   13107200 cpu:       0.0
 (Enter /programs/64bit/g09/g09-gfortran/bin/l101.exe)
 -------------
 c2h6 molecule
 -------------
 Symbolic Z-matrix:
 Charge =  0 Multiplicity = 1
 C1
 C2                   1    d1
 H3                   1    d2       2    a1
 H4                   1    d3       2    a2       3    t1       0
 H5                   1    d4       2    a3       3    t2       0
 H6                   2    d5       1    a4       3    t3       0
 H7                   2    d6       1    a5       6    t4       0
 H8                   2    d7       1    a6       6    t5       0
       Variables:
       Constants:
  d1                    1.55879                  
  a1                  130.16425                  
  t1                  106.01537                  
  d2                    1.12516                  
  a2                   95.80841                  
  t2                 -150.29238                  
  d3                    1.16126                  
  d4                    1.08126                  
  a3                  116.99646                  
  d5                    1.11286                  
  a4                  101.78081                  
  t3                  179.9427                   
  d6                    1.08919                  
  a5                  108.25299                  
  t4                  106.29596                  
  d7                    1.06364                  
  a6                  120.35997                  
  t5                 -120.65194                  
 
 NAtoms=      8 NQM=      8 NQMF=      0 NMic=      0 NMicF=      0 NTot=      8.
                    Isotopes and Nuclear Properties:
 (Nuclear quadrupole moments (NQMom) in fm**2, nuclear magnetic moments (NMagM)
  in nuclear magnetons)

  Atom         1           2           3           4           5           6           7           8
 IAtWgt=          12          12           1           1           1           1           1           1
 AtmWgt=  12.0000000  12.0000000   1.0078250   1.0078250   1.0078250   1.0078250   1.0078250   1.0078250
 NucSpn=           0           0           1           1           1           1           1           1
 AtZEff=   0.0000000   0.0000000   0.0000000   0.0000000   0.0000000   0.0000000   0.0000000   0.0000000
 NQMom=    0.0000000   0.0000000   0.0000000   0.0000000   0.0000000   0.0000000   0.0000000   0.0000000
 NMagM=    0.0000000   0.0000000   2.7928460   2.7928460   2.7928460   2.7928460   2.7928460   2.7928460
 Leave Link  101 at Wed May 26 19:16:01 2021, MaxMem=   13107200 cpu:       0.0
 (Enter /programs/64bit/g09/g09-gfortran/bin/l103.exe)

 GradGradGradGradGradGradGradGradGradGradGradGradGradGradGradGradGradGrad
 Berny optimization.
 Initialization pass.
                       ----------------------------
                       !    Initial Parameters    !
                       ! (Angstroms and Degrees)  !
 ----------------------                            ----------------------
 !      Name          Value   Derivative information (Atomic Units)     !
 ------------------------------------------------------------------------
 !       d1          1.5588   Frozen                                    !
 !       a1        130.1642   Frozen                                    !
 !       t1        106.0154   Frozen                                    !
 !       d2          1.1252   Frozen                                    !
 !       a2         95.8084   Frozen                                    !
 !       t2       -150.2924   Frozen                                    !
 !       d3          1.1613   Frozen                                    !
 !       d4          1.0813   Frozen                                    !
 !       a3        116.9965   Frozen                                    !
 !       d5          1.1129   Frozen                                    !
 !       a4        101.7808   Frozen                                    !
 !       t3        179.9427   Frozen                                    !
 !       d6          1.0892   Frozen                                    !
 !       a5        108.253    Frozen                                    !
 !       t4        106.296    Frozen                                    !
 !       d7          1.0636   Frozen                                    !
 !       a6        120.36     Frozen                                    !
 !       t5       -120.6519   Frozen                                    !
 ------------------------------------------------------------------------
 Trust Radius=3.00D-01 FncErr=1.00D-07 GrdErr=1.00D-07
 Number of steps in this run=   2 maximum allowed number of steps=   2.
 GradGradGradGradGradGradGradGradGradGradGradGradGradGradGradGradGradGrad

 Leave Link  103 at Wed May 26 19:16:01 2021, MaxMem=   13107200 cpu:       0.0
 (Enter /programs/64bit/g09/g09-gfortran/bin/l202.exe)
                          Input orientation:                          
 ---------------------------------------------------------------------
 Center     Atomic      Atomic             Coordinates (Angstroms)
 Number     Number       Type             X           Y           Z
 ---------------------------------------------------------------------
      1          6           0        0.000000    0.000000    0.000000
      2          6           0        0.000000    0.000000    1.558792
      3          1           0        0.859848    0.000000   -0.725709
      4          1           0       -0.318740   -1.110455   -0.117522
      5          1           0       -0.836812    0.477456   -0.490823
      6          1           0       -1.089422    0.001089    1.786003
      7          1           0        0.289254   -0.993117    1.899940
      8          1           0        0.468694    0.789081    2.096389
 ---------------------------------------------------------------------
                    Distance matrix (angstroms):
                    1          2          3          4          5
     1  C    0.000000
     2  C    1.558792   0.000000
     3  H    1.125163   2.440959   0.000000
     4  H    1.161256   2.035861   1.729760   0.000000
     5  H    1.081261   2.264760   1.778142   1.711494   0.000000
     6  H    2.092044   1.112864   3.179363   2.335142   2.339802
     7  H    2.163266   1.089188   2.864593   2.110350   3.024294
     8  H    2.288486   1.063642   2.956330   3.021537   2.914639
                    6          7          8
     6  H    0.000000
     7  H    1.703577   0.000000
     8  H    1.773413   1.801949   0.000000
 Symmetry turned off by external request.
 Stoichiometry    C2H6
 Framework group  C1[X(C2H6)]
 Deg. of freedom    18
 Full point group                 C1      NOp   1
 Rotational constants (GHZ):     82.7566090     19.1669551     19.1329981
 Leave Link  202 at Wed May 26 19:16:01 2021, MaxMem=   13107200 cpu:       0.0
 (Enter /programs/64bit/g09/g09-gfortran/bin/l301.exe)
 Standard basis: 6-31+G(d,p) (6D, 7F)
 Ernie: Thresh=  0.10000D-02 Tol=  0.10000D-05 Strict=F.
 Integral buffers will be    131072 words long.
 Raffenetti 2 integral format.
 Two-electron integral symmetry is turned off.
    68 basis functions,   106 primitive gaussians,    68 cartesian basis functions
     9 alpha electrons        9 beta electrons
       nuclear repulsion energy        41.6827813417 Hartrees.
 IExCor=  402 DFT=T Ex+Corr=B3LYP ExCW=0 ScaHFX=  0.200000
 ScaDFX=  0.800000  0.720000  1.000000  0.810000 ScalE2=  1.000000  1.000000
 IRadAn=      0 IRanWt=     -1 IRanGd=            0 ICorTp=0
 NAtoms=    8 NActive=    8 NUniq=    8 SFac= 7.50D-01 NAtFMM=   80 NAOKFM=F Big=F
 Leave Link  301 at Wed May 26 19:16:01 2021, MaxMem=   13107200 cpu:       0.0
 (Enter /programs/64bit/g09/g09-gfortran/bin/l302.exe)
 NPDir=0 NMtPBC=     1 NCelOv=     1 NCel=       1 NClECP=     1 NCelD=      1
         NCelK=      1 NCelE2=     1 NClLst=     1 CellRange=     0.0.
 One-electron integrals computed using PRISM.
 NBasis=    68 RedAO= T  NBF=    68
 NBsUse=    68 1.00D-06 NBFU=    68
 Precomputing XC quadrature grid using
 IXCGrd= 2 IRadAn=           0 IRanWt=          -1 IRanGd=           0 AccXCQ= 1.00D-10.
 NRdTot=     510 NPtTot=       65100 NUsed=       68787 NTot=       68819
 NSgBfM=    68    68    68    68    68 NAtAll=     8     8.
 Leave Link  302 at Wed May 26 19:16:01 2021, MaxMem=   13107200 cpu:       0.1
 (Enter /programs/64bit/g09/g09-gfortran/bin/l303.exe)
 DipDrv:  MaxL=1.
 Leave Link  303 at Wed May 26 19:16:01 2021, MaxMem=   13107200 cpu:       0.0
 (Enter /programs/64bit/g09/g09-gfortran/bin/l401.exe)
 Harris functional with IExCor=  402 diagonalized for initial guess.
 ExpMin= 4.38D-02 ExpMax= 3.05D+03 ExpMxC= 4.57D+02 IAcc=2 IRadAn=         0 AccDes= 0.00D+00
 HarFok:  IExCor=  402 AccDes= 0.00D+00 IRadAn=         0 IDoV= 1
 ScaDFX=  1.000000  1.000000  1.000000  1.000000
 FoFCou: FMM=F IPFlag=           0 FMFlag=      100000 FMFlg1=           0
         NFxFlg=           0 DoJE=T BraDBF=F KetDBF=T FulRan=T
         Omega=  0.000000  0.000000  1.000000  0.000000  0.000000 ICntrl=     500 IOpCl=  0
         NMat0=    1 NMatS0=    1 NMatT0=    0 NMatD0=    1 NMtDS0=    0 NMtDT0=    0
         I1Cent=           4 NGrid=           0.
 Symmetry not used in FoFCou.
 Harris En= -79.8654103043882    
 Leave Link  401 at Wed May 26 19:16:02 2021, MaxMem=   13107200 cpu:       0.8
 (Enter /programs/64bit/g09/g09-gfortran/bin/l502.exe)
 Closed shell SCF:
 Requested convergence on RMS density matrix=1.00D-08 within 128 cycles.
 Requested convergence on MAX density matrix=1.00D-06.
 Requested convergence on             energy=1.00D-06.
 No special actions if energy rises.
 Using DIIS extrapolation, IDIIS=  1040.
 Two-electron integral symmetry not used.
        68702 words used for storage of precomputed grid.
 Keep R1 ints in memory in canonical form, NReq=3743087.
 IEnd=      101552 IEndB=      101552 NGot=    13107200 MDV=    10273922
 LenX=    10273922 LenY=    10268857
 Symmetry not used in FoFDir.
 MinBra= 0 MaxBra= 2 Meth= 1.
 IRaf=       0 NMat=   1 IRICut=       1 DoRegI=T DoRafI=F ISym2E= 0 JSym2E=0.

 Cycle   1  Pass 1  IDiag  1:
 E= -79.6920209907123    
 DIIS: error= 3.86D-02 at cycle   1 NSaved=   1.
 NSaved= 1 IEnMin= 1 EnMin= -79.6920209907123     IErMin= 1 ErrMin= 3.86D-02
 ErrMax= 3.86D-02 EMaxC= 1.00D-01 BMatC= 1.08D-01 BMatP= 1.08D-01
 IDIUse=3 WtCom= 6.14D-01 WtEn= 3.86D-01
 Coeff-Com:  0.100D+01
 Coeff-En:   0.100D+01
 Coeff:      0.100D+01
 Gap=     0.264 Goal=   None    Shift=    0.000
 GapD=    0.264 DampG=1.000 DampE=0.500 DampFc=0.5000 IDamp=-1.
 Damping current iteration by 5.00D-01
 RMSDP=9.95D-03 MaxDP=1.40D-01              OVMax= 1.98D-01

 Cycle   2  Pass 1  IDiag  1:
 E= -79.7421138114903     Delta-E=       -0.050092820778 Rises=F Damp=T
 DIIS: error= 1.10D-02 at cycle   2 NSaved=   2.
 NSaved= 2 IEnMin= 2 EnMin= -79.7421138114903     IErMin= 2 ErrMin= 1.10D-02
 ErrMax= 1.10D-02 EMaxC= 1.00D-01 BMatC= 4.99D-03 BMatP= 1.08D-01
 IDIUse=3 WtCom= 8.90D-01 WtEn= 1.10D-01
 Coeff-Com:  0.118D+00 0.882D+00
 Coeff-En:   0.200D+00 0.800D+00
 Coeff:      0.127D+00 0.873D+00
 Gap=     0.362 Goal=   None    Shift=    0.000
 RMSDP=1.65D-03 MaxDP=1.65D-02 DE=-5.01D-02 OVMax= 1.14D-01

 Cycle   3  Pass 1  IDiag  1:
 E= -79.8148061390447     Delta-E=       -0.072692327554 Rises=F Damp=F
 DIIS: error= 1.77D-03 at cycle   3 NSaved=   3.
 NSaved= 3 IEnMin= 3 EnMin= -79.8148061390447     IErMin= 3 ErrMin= 1.77D-03
 ErrMax= 1.77D-03 EMaxC= 1.00D-01 BMatC= 2.60D-04 BMatP= 4.99D-03
 IDIUse=3 WtCom= 9.82D-01 WtEn= 1.77D-02
 Coeff-Com:  0.118D-01 0.149D+00 0.839D+00
 Coeff-En:   0.000D+00 0.000D+00 0.100D+01
 Coeff:      0.116D-01 0.146D+00 0.842D+00
 Gap=     0.338 Goal=   None    Shift=    0.000
 RMSDP=3.24D-04 MaxDP=3.04D-03 DE=-7.27D-02 OVMax= 5.74D-03

 Cycle   4  Pass 1  IDiag  1:
 E= -79.8150184883611     Delta-E=       -0.000212349316 Rises=F Damp=F
 DIIS: error= 8.26D-04 at cycle   4 NSaved=   4.
 NSaved= 4 IEnMin= 4 EnMin= -79.8150184883611     IErMin= 4 ErrMin= 8.26D-04
 ErrMax= 8.26D-04 EMaxC= 1.00D-01 BMatC= 4.10D-05 BMatP= 2.60D-04
 IDIUse=3 WtCom= 9.92D-01 WtEn= 8.26D-03
 Coeff-Com:  0.922D-03 0.117D-01 0.276D+00 0.711D+00
 Coeff-En:   0.000D+00 0.000D+00 0.000D+00 0.100D+01
 Coeff:      0.915D-03 0.116D-01 0.274D+00 0.714D+00
 Gap=     0.339 Goal=   None    Shift=    0.000
 RMSDP=1.04D-04 MaxDP=1.74D-03 DE=-2.12D-04 OVMax= 2.65D-03

 Cycle   5  Pass 1  IDiag  1:
 E= -79.8150498974826     Delta-E=       -0.000031409121 Rises=F Damp=F
 DIIS: error= 4.26D-04 at cycle   5 NSaved=   5.
 NSaved= 5 IEnMin= 5 EnMin= -79.8150498974826     IErMin= 5 ErrMin= 4.26D-04
 ErrMax= 4.26D-04 EMaxC= 1.00D-01 BMatC= 9.05D-06 BMatP= 4.10D-05
 IDIUse=3 WtCom= 9.96D-01 WtEn= 4.26D-03
 Coeff-Com:  0.852D-04-0.343D-02 0.913D-01 0.380D+00 0.532D+00
 Coeff-En:   0.000D+00 0.000D+00 0.000D+00 0.124D+00 0.876D+00
 Coeff:      0.849D-04-0.341D-02 0.909D-01 0.379D+00 0.534D+00
 Gap=     0.338 Goal=   None    Shift=    0.000
 RMSDP=3.66D-05 MaxDP=6.40D-04 DE=-3.14D-05 OVMax= 9.54D-04

 Cycle   6  Pass 1  IDiag  1:
 E= -79.8150588085874     Delta-E=       -0.000008911105 Rises=F Damp=F
 DIIS: error= 1.30D-05 at cycle   6 NSaved=   6.
 NSaved= 6 IEnMin= 6 EnMin= -79.8150588085874     IErMin= 6 ErrMin= 1.30D-05
 ErrMax= 1.30D-05 EMaxC= 1.00D-01 BMatC= 1.60D-08 BMatP= 9.05D-06
 IDIUse=1 WtCom= 1.00D+00 WtEn= 0.00D+00
 Coeff-Com:  0.203D-03-0.615D-03 0.584D-02 0.276D-01 0.592D-01 0.908D+00
 Coeff:      0.203D-03-0.615D-03 0.584D-02 0.276D-01 0.592D-01 0.908D+00
 Gap=     0.338 Goal=   None    Shift=    0.000
 RMSDP=2.50D-06 MaxDP=3.35D-05 DE=-8.91D-06 OVMax= 5.32D-05

 Cycle   7  Pass 1  IDiag  1:
 E= -79.8150588253136     Delta-E=       -0.000000016726 Rises=F Damp=F
 DIIS: error= 3.84D-06 at cycle   7 NSaved=   7.
 NSaved= 7 IEnMin= 7 EnMin= -79.8150588253136     IErMin= 7 ErrMin= 3.84D-06
 ErrMax= 3.84D-06 EMaxC= 1.00D-01 BMatC= 1.05D-09 BMatP= 1.60D-08
 IDIUse=1 WtCom= 1.00D+00 WtEn= 0.00D+00
 Coeff-Com:  0.745D-04-0.939D-04-0.165D-02-0.569D-02-0.132D-02 0.285D+00
 Coeff-Com:  0.723D+00
 Coeff:      0.745D-04-0.939D-04-0.165D-02-0.569D-02-0.132D-02 0.285D+00
 Coeff:      0.723D+00
 Gap=     0.338 Goal=   None    Shift=    0.000
 RMSDP=7.10D-07 MaxDP=7.76D-06 DE=-1.67D-08 OVMax= 1.38D-05

 Cycle   8  Pass 1  IDiag  1:
 E= -79.8150588265496     Delta-E=       -0.000000001236 Rises=F Damp=F
 DIIS: error= 2.24D-07 at cycle   8 NSaved=   8.
 NSaved= 8 IEnMin= 8 EnMin= -79.8150588265496     IErMin= 8 ErrMin= 2.24D-07
 ErrMax= 2.24D-07 EMaxC= 1.00D-01 BMatC= 4.41D-12 BMatP= 1.05D-09
 IDIUse=1 WtCom= 1.00D+00 WtEn= 0.00D+00
 Coeff-Com: -0.905D-07 0.480D-06-0.177D-03-0.616D-03-0.850D-03 0.627D-02
 Coeff-Com:  0.620D-01 0.933D+00
 Coeff:     -0.905D-07 0.480D-06-0.177D-03-0.616D-03-0.850D-03 0.627D-02
 Coeff:      0.620D-01 0.933D+00
 Gap=     0.338 Goal=   None    Shift=    0.000
 RMSDP=5.69D-08 MaxDP=8.11D-07 DE=-1.24D-09 OVMax= 1.20D-06

 Cycle   9  Pass 1  IDiag  1:
 E= -79.8150588265555     Delta-E=       -0.000000000006 Rises=F Damp=F
 DIIS: error= 2.99D-08 at cycle   9 NSaved=   9.
 NSaved= 9 IEnMin= 9 EnMin= -79.8150588265555     IErMin= 9 ErrMin= 2.99D-08
 ErrMax= 2.99D-08 EMaxC= 1.00D-01 BMatC= 8.49D-14 BMatP= 4.41D-12
 IDIUse=1 WtCom= 1.00D+00 WtEn= 0.00D+00
 Coeff-Com: -0.932D-06 0.907D-06-0.156D-04-0.584D-04-0.125D-03-0.182D-02
 Coeff-Com:  0.408D-02 0.175D+00 0.823D+00
 Coeff:     -0.932D-06 0.907D-06-0.156D-04-0.584D-04-0.125D-03-0.182D-02
 Coeff:      0.408D-02 0.175D+00 0.823D+00
 Gap=     0.338 Goal=   None    Shift=    0.000
 RMSDP=7.75D-09 MaxDP=7.14D-08 DE=-5.91D-12 OVMax= 1.16D-07

 SCF Done:  E(RB3LYP) =  -79.8150588266     A.U. after    9 cycles
             Convg  =    0.7749D-08             -V/T =  2.0119
 KE= 7.887980093318D+01 PE=-2.669632286928D+02 EE= 6.658558759132D+01
 Leave Link  502 at Wed May 26 19:16:07 2021, MaxMem=   13107200 cpu:       5.8
 (Enter /programs/64bit/g09/g09-gfortran/bin/l601.exe)
 Copying SCF densities to generalized density rwf, IOpCl= 0 IROHF=0.

 **********************************************************************

            Population analysis using the SCF density.

 **********************************************************************

 Alpha  occ. eigenvalues --  -10.18788 -10.18499  -0.75250  -0.62112  -0.43900
 Alpha  occ. eigenvalues --   -0.42944  -0.37747  -0.34158  -0.32456
 Alpha virt. eigenvalues --    0.01387   0.02642   0.05356   0.05501   0.07909
 Alpha virt. eigenvalues --    0.08854   0.09029   0.13534   0.14553   0.18217
 Alpha virt. eigenvalues --    0.21550   0.23559   0.25667   0.28417   0.32535
 Alpha virt. eigenvalues --    0.63197   0.63939   0.65549   0.66609   0.69304
 Alpha virt. eigenvalues --    0.69757   0.88775   0.90582   0.94919   0.97038
 Alpha virt. eigenvalues --    1.03869   1.08791   1.10764   1.29743   1.35233
 Alpha virt. eigenvalues --    1.36928   1.61882   1.77456   1.78362   2.00949
 Alpha virt. eigenvalues --    2.02578   2.05019   2.09376   2.12673   2.18043
 Alpha virt. eigenvalues --    2.24553   2.28390   2.34970   2.44157   2.50055
 Alpha virt. eigenvalues --    2.67037   2.72120   2.74821   2.83308   2.87051
 Alpha virt. eigenvalues --    2.92866   3.13935   3.27120   3.37449   3.43288
 Alpha virt. eigenvalues --    3.49901   3.54743   4.33132   4.59594
          Condensed to atoms (all electrons):
              1          2          3          4          5          6
     1  C    5.163000   0.228708   0.374053   0.418144   0.399434  -0.058924
     2  C    0.228708   5.111682  -0.006182  -0.083562  -0.034609   0.412918
     3  H    0.374053  -0.006182   0.547992  -0.035420  -0.029990   0.003570
     4  H    0.418144  -0.083562  -0.035420   0.622995  -0.036241  -0.004215
     5  H    0.399434  -0.034609  -0.029990  -0.036241   0.551130  -0.008722
     6  H   -0.058924   0.412918   0.003570  -0.004215  -0.008722   0.573555
     7  H   -0.069236   0.433278  -0.000463  -0.014487   0.004444  -0.037694
     8  H   -0.019365   0.385881  -0.002681   0.005468  -0.000415  -0.027693
              7          8
     1  C   -0.069236  -0.019365
     2  C    0.433278   0.385881
     3  H   -0.000463  -0.002681
     4  H   -0.014487   0.005468
     5  H    0.004444  -0.000415
     6  H   -0.037694  -0.027693
     7  H    0.557247  -0.026010
     8  H   -0.026010   0.532420
 Mulliken atomic charges:
              1
     1  C   -0.435814
     2  C   -0.448114
     3  H    0.149121
     4  H    0.127319
     5  H    0.154970
     6  H    0.147203
     7  H    0.152921
     8  H    0.152395
 Sum of Mulliken atomic charges =   0.00000
 Mulliken charges with hydrogens summed into heavy atoms:
              1
     1  C   -0.004405
     2  C    0.004405
 Sum of Mulliken charges with hydrogens summed into heavy atoms =   0.00000
 Electronic spatial extent (au):  <R**2>=            150.7986
 Charge=              0.0000 electrons
 Dipole moment (field-independent basis, Debye):
    X=             -0.1740    Y=             -0.1819    Z=              0.0671  Tot=              0.2605
 Quadrupole moment (field-independent basis, Debye-Ang):
   XX=            -15.3440   YY=            -15.4281   ZZ=            -15.2029
   XY=             -0.0464   XZ=             -0.1777   YZ=             -0.1405
 Traceless Quadrupole moment (field-independent basis, Debye-Ang):
   XX=             -0.0189   YY=             -0.1031   ZZ=              0.1221
   XY=             -0.0464   XZ=             -0.1777   YZ=             -0.1405
 Octapole moment (field-independent basis, Debye-Ang**2):
  XXX=              0.8745  YYY=              1.6213  ZZZ=            -35.5998  XYY=              0.6951
  XXY=              0.9909  XXZ=            -11.9928  XZZ=              0.9340  YZZ=              1.0524
  YYZ=            -10.6873  XYZ=              0.5107
 Hexadecapole moment (field-independent basis, Debye-Ang**3):
 XXXX=            -31.5886 YYYY=            -31.8730 ZZZZ=           -155.1651 XXXY=             -0.4695
 XXXZ=              0.4167 YYYX=             -0.0597 YYYZ=              0.2323 ZZZX=              2.3604
 ZZZY=              1.7478 XXYY=            -10.9860 XXZZ=            -30.4326 YYZZ=            -29.4294
 XXYZ=              0.3231 YYXZ=              1.4268 ZZXY=              0.6249
 N-N= 4.168278134172D+01 E-N=-2.669632281759D+02  KE= 7.887980093318D+01
 No NMR shielding tensors so no spin-rotation constants.
 Leave Link  601 at Wed May 26 19:16:07 2021, MaxMem=   13107200 cpu:       0.0
 (Enter /programs/64bit/g09/g09-gfortran/bin/l701.exe)
 Compute integral first derivatives.
 ... and contract with generalized density number  0.
 Leave Link  701 at Wed May 26 19:16:08 2021, MaxMem=   13107200 cpu:       0.1
 (Enter /programs/64bit/g09/g09-gfortran/bin/l702.exe)
 L702 exits ... SP integral derivatives will be done elsewhere.
 Leave Link  702 at Wed May 26 19:16:08 2021, MaxMem=   13107200 cpu:       0.0
 (Enter /programs/64bit/g09/g09-gfortran/bin/l703.exe)
 Compute integral first derivatives, UseDBF=F ICtDFT=           0.
 Integral derivatives from FoFDir, PRISM(SPDF).
 Calling FoFJK, ICntrl=      2127 FMM=F ISym2X=0 I1Cent= 0 IOpClX= 0 NMat=1 NMatS=1 NMatT=0.
 FoFCou: FMM=F IPFlag=           0 FMFlag=      100000 FMFlg1=         800
         NFxFlg=           0 DoJE=F BraDBF=F KetDBF=F FulRan=T
         Omega=  0.000000  0.000000  1.000000  0.000000  0.000000 ICntrl=    2127 IOpCl=  0
         NMat0=    1 NMatS0=    1 NMatT0=    0 NMatD0=    1 NMtDS0=    0 NMtDT0=    0
         I1Cent=           0 NGrid=           0.
 Symmetry not used in FoFCou.
 Leave Link  703 at Wed May 26 19:16:09 2021, MaxMem=   13107200 cpu:       1.4
 (Enter /programs/64bit/g09/g09-gfortran/bin/l716.exe)
 Dipole        =-6.84449165D-02-7.15472137D-02 2.63914583D-02
 -------------------------------------------------------------------
 Center     Atomic                   Forces (Hartrees/Bohr)
 Number     Number              X              Y              Z
 -------------------------------------------------------------------
      1        6          -0.006959807   -0.070796848   -0.015956785
      2        6          -0.029106737   -0.010188847   -0.023457655
      3        1          -0.001553003    0.013126623    0.027220660
      4        1           0.005770741    0.026471955   -0.008069326
      5        1          -0.002881991    0.017308591    0.003086062
      6        1           0.009607364    0.006696966    0.004338806
      7        1           0.013105955    0.002988012    0.005494843
      8        1           0.012017478    0.014393548    0.007343394
 -------------------------------------------------------------------
 Cartesian Forces:  Max     0.070796848 RMS     0.020022063
 -----------------------------------------------------------------------------------------------
                       Internal Coordinate Forces (Hartree/Bohr or radian)
  Cent   Atom   N1       Length/X         N2         Alpha/Y        N3         Beta/Z          J
 -----------------------------------------------------------------------------------------------
      1  C 
      2  C        1  -0.006281(     1)
      3  H        1  -0.018744(     2)      2  -0.042100(     8)
      4  H        1  -0.026081(     3)      2   0.023621(     9)      3   0.003835(    14)     0
      5  H        1   0.008473(     4)      2  -0.015896(    10)      3   0.024771(    15)     0
      6  H        2  -0.008513(     5)      1   0.013055(    11)      3   0.007251(    16)     0
      7  H        2   0.002477(     6)      1   0.010228(    12)      6   0.026229(    17)     0
      8  H        2   0.019685(     7)      1  -0.006071(    13)      6  -0.005171(    18)     0
 -----------------------------------------------------------------------------------------------
 Internal  Forces:  Max     0.042100459 RMS     0.018103824
 Force constants in Cartesian coordinates: 
                1             2             3             4             5 
      1  0.620799D+00
      2 -0.423083D-01  0.510361D+00
      3 -0.101725D-01 -0.319147D-01  0.683011D+00
      4 -0.100152D+00 -0.164143D-02  0.715683D-02  0.604901D+00
      5 -0.175843D-02 -0.903345D-01  0.104800D-01  0.425895D-01  0.696317D+00
      6 -0.569691D-02 -0.379698D-02 -0.269171D+00  0.505154D-01  0.419670D-01
      7 -0.210395D+00  0.339083D-02  0.990869D-01  0.168159D-01  0.626213D-03
      8  0.143925D-01 -0.672903D-01 -0.580473D-02  0.943983D-03  0.547782D-02
      9  0.118560D+00  0.401758D-02 -0.193057D+00  0.199241D-01  0.741962D-03
     10 -0.719295D-01 -0.635242D-01 -0.438092D-02  0.472082D-03  0.464865D-03
     11 -0.580968D-01 -0.255242D+00 -0.211269D-01  0.575925D-03  0.237941D-02
     12 -0.788970D-02 -0.355791D-01 -0.657331D-01 -0.672224D-02 -0.237436D-01
     13 -0.251184D+00  0.100956D+00 -0.916903D-01  0.986118D-02 -0.311863D-02
     14  0.846432D-01 -0.116231D+00  0.483663D-01 -0.364549D-02  0.740632D-02
     15 -0.100498D+00  0.634763D-01 -0.155050D+00 -0.203587D-01  0.125216D-01
     16  0.528400D-02 -0.267031D-04  0.000000D+00 -0.310266D+00 -0.145715D-02
     17 -0.267195D-03  0.400242D-03  0.000000D+00 -0.663766D-02 -0.703748D-01
     18  0.253367D-01 -0.129954D-03  0.000000D+00  0.610223D-01 -0.819790D-02
     19  0.232656D-02 -0.204203D-02  0.000000D+00 -0.876548D-01  0.545160D-01
     20 -0.185120D-02  0.768246D-02  0.000000D+00  0.634303D-01 -0.304629D+00
     21 -0.736169D-02  0.240958D-01  0.000000D+00 -0.369942D-01  0.831371D-01
     22  0.525072D-02  0.519610D-02  0.000000D+00 -0.133977D+00 -0.918624D-01
     23  0.524625D-02  0.106546D-01  0.000000D+00 -0.956151D-01 -0.246242D+00
     24 -0.122781D-01 -0.201689D-01  0.000000D+00 -0.745434D-01 -0.116906D+00
                6             7             8             9            10 
      6  0.627188D+00
      7  0.000000D+00  0.208864D+00
      8  0.000000D+00 -0.282409D-02  0.491571D-01
      9  0.000000D+00 -0.120374D+00 -0.334609D-02  0.167836D+00
     10  0.000000D+00 -0.396931D-02 -0.245398D-01 -0.470299D-02  0.633460D-01
     11  0.000000D+00  0.730219D-03  0.471671D-02  0.865192D-03  0.609897D-01
     12  0.000000D+00  0.386568D-02  0.219883D-01  0.458021D-02  0.383458D-02
     13  0.000000D+00 -0.113156D-01  0.120203D-01 -0.134071D-01  0.120756D-01
     14  0.000000D+00 -0.192317D-02  0.787037D-02 -0.227864D-02  0.265606D-01
     15  0.000000D+00  0.174213D-01 -0.128375D-01  0.206414D-01  0.524932D-02
     16  0.508174D-01  0.000000D+00  0.000000D+00  0.000000D+00  0.000000D+00
     17 -0.704048D-02  0.000000D+00  0.687562D-03  0.000000D+00  0.491869D-03
     18 -0.792960D-01  0.000000D+00  0.000000D+00  0.000000D+00  0.000000D+00
     19 -0.309816D-01  0.000000D+00 -0.695257D-03  0.000000D+00 -0.497374D-03
     20  0.736422D-01  0.000000D+00 -0.202500D-03  0.000000D+00 -0.144864D-03
     21 -0.108417D+00  0.000000D+00  0.000000D+00  0.000000D+00  0.000000D+00
     22 -0.646542D-01  0.000000D+00  0.701700D-03  0.000000D+00  0.501983D-03
     23 -0.104772D+00  0.000000D+00 -0.416792D-03  0.000000D+00 -0.298165D-03
     24 -0.170304D+00  0.000000D+00  0.000000D+00  0.000000D+00  0.000000D+00
               11            12            13            14            15 
     11  0.257397D+00
     12  0.220907D-01  0.581081D-01
     13 -0.419761D-02  0.691167D-02  0.240566D+00
     14 -0.923711D-02  0.152438D-01 -0.105630D+00  0.110244D+00
     15 -0.182898D-02  0.304482D-02  0.981857D-01 -0.613314D-01  0.131364D+00
     16  0.000000D+00  0.000000D+00  0.000000D+00  0.000000D+00  0.000000D+00
     17 -0.141184D-03  0.000000D+00 -0.304100D-03 -0.532980D-03  0.000000D+00
     18  0.000000D+00  0.000000D+00  0.000000D+00  0.000000D+00  0.000000D+00
     19  0.142764D-03  0.000000D+00  0.307504D-03  0.538946D-03  0.000000D+00
     20  0.415813D-04  0.000000D+00  0.895632D-04  0.156973D-03  0.000000D+00
     21  0.000000D+00  0.000000D+00  0.000000D+00  0.000000D+00  0.000000D+00
     22 -0.144087D-03  0.000000D+00 -0.310354D-03 -0.543940D-03  0.000000D+00
     23  0.855840D-04  0.000000D+00  0.184342D-03  0.323086D-03  0.000000D+00
     24  0.000000D+00  0.000000D+00  0.000000D+00  0.000000D+00  0.000000D+00
               16            17            18            19            20 
     16  0.311824D+00
     17  0.770455D-03  0.556882D-01
     18 -0.535247D-01  0.497580D-02  0.663252D-01
     19 -0.260181D-02  0.325002D-01 -0.126309D-01  0.754035D-01
     20 -0.490625D-03  0.626198D-02 -0.238245D-02 -0.689761D-01  0.301450D+00
     21  0.777773D-03 -0.932709D-02  0.377395D-02  0.312373D-01 -0.801306D-01
     22 -0.424021D-02 -0.265535D-01 -0.202034D-01  0.127164D-01  0.794300D-02
     23  0.120401D-02  0.801096D-02  0.573450D-02 -0.159844D-01 -0.107616D-01
     24  0.192951D-02  0.113918D-01  0.919692D-02  0.123752D-01  0.887086D-02
               21            22            23            24 
     21  0.893122D-01
     22  0.123408D-01  0.120058D+00
     23 -0.177752D-01  0.105263D+00  0.238347D+00
     24  0.153312D-01  0.725168D-01  0.116812D+00  0.145775D+00
 Force constants in internal coordinates: 
                1             2             3             4             5 
      1  0.269171D+00
      2  0.000000D+00  0.310459D+00
      3  0.000000D+00  0.000000D+00  0.277241D+00
      4  0.000000D+00  0.000000D+00  0.000000D+00  0.358424D+00
      5  0.000000D+00  0.000000D+00  0.000000D+00  0.000000D+00  0.322987D+00
      6  0.000000D+00  0.000000D+00  0.000000D+00  0.000000D+00  0.000000D+00
      7  0.000000D+00  0.000000D+00  0.000000D+00  0.000000D+00  0.000000D+00
      8  0.000000D+00  0.000000D+00  0.000000D+00  0.000000D+00  0.000000D+00
      9  0.000000D+00  0.000000D+00  0.000000D+00  0.000000D+00  0.000000D+00
     10  0.000000D+00  0.000000D+00  0.000000D+00  0.000000D+00  0.000000D+00
     11  0.000000D+00  0.000000D+00  0.000000D+00  0.000000D+00  0.000000D+00
     12  0.000000D+00  0.000000D+00  0.000000D+00  0.000000D+00  0.000000D+00
     13  0.000000D+00  0.000000D+00  0.000000D+00  0.000000D+00  0.000000D+00
     14  0.000000D+00  0.000000D+00  0.000000D+00  0.000000D+00  0.000000D+00
     15  0.000000D+00  0.000000D+00  0.000000D+00  0.000000D+00  0.000000D+00
     16  0.000000D+00  0.000000D+00  0.000000D+00  0.000000D+00  0.000000D+00
     17  0.000000D+00  0.000000D+00  0.000000D+00  0.000000D+00  0.000000D+00
     18  0.000000D+00  0.000000D+00  0.000000D+00  0.000000D+00  0.000000D+00
                6             7             8             9            10 
      6  0.349066D+00
      7  0.000000D+00  0.380454D+00
      8  0.000000D+00  0.000000D+00  0.299470D+00
      9  0.000000D+00  0.000000D+00  0.281097D-01  0.268908D+00
     10  0.000000D+00  0.000000D+00  0.131699D+00  0.154014D-01  0.302413D+00
     11  0.000000D+00  0.000000D+00  0.000000D+00  0.000000D+00  0.000000D+00
     12  0.000000D+00  0.000000D+00  0.000000D+00  0.000000D+00  0.000000D+00
     13  0.000000D+00  0.000000D+00  0.000000D+00  0.000000D+00  0.000000D+00
     14  0.000000D+00  0.000000D+00 -0.289088D-01 -0.116006D-01  0.277865D-01
     15  0.000000D+00  0.000000D+00  0.436827D-01 -0.669274D-01  0.192555D-01
     16  0.000000D+00  0.000000D+00  0.000000D+00  0.000000D+00  0.000000D+00
     17  0.000000D+00  0.000000D+00  0.000000D+00  0.000000D+00  0.000000D+00
     18  0.000000D+00  0.000000D+00  0.000000D+00  0.000000D+00  0.000000D+00
               11            12            13            14            15 
     11  0.243957D+00
     12  0.175714D-01  0.258670D+00
     13  0.460235D-01  0.774016D-01  0.263632D+00
     14  0.000000D+00  0.000000D+00  0.000000D+00  0.218152D+00
     15  0.000000D+00  0.000000D+00  0.000000D+00 -0.122081D+00  0.170100D+00
     16  0.139521D-03 -0.264480D-03 -0.127054D-03  0.690000D-02  0.690000D-02
     17 -0.537213D-01  0.321270D-01  0.653960D-01  0.230000D-02  0.230000D-02
     18  0.756302D-01 -0.740044D-01 -0.108831D-01  0.230000D-02  0.230000D-02
               16            17            18 
     16  0.208778D-01
     17  0.768426D-02  0.214129D+00
     18  0.590497D-02 -0.738403D-01  0.175883D+00
 Leave Link  716 at Wed May 26 19:16:09 2021, MaxMem=   13107200 cpu:       0.0
 (Enter /programs/64bit/g09/g09-gfortran/bin/l103.exe)

 GradGradGradGradGradGradGradGradGradGradGradGradGradGradGradGradGradGrad
 Berny optimization.
 Search for a local minimum.
 Step number   1 out of a maximum of    2
 All quantities printed in internal units (Hartrees-Bohrs-Radians)
 Second derivative matrix not updated -- first step.
 The second derivative matrix:
                          d1        a1        t1        d2        a2
           d1           0.26917
           a1           0.00000   0.29947
           t1           0.00000  -0.02891   0.21815
           d2           0.00000  -0.00000   0.00000   0.31046
           a2          -0.00000   0.02811  -0.01160  -0.00000   0.26891
           t2          -0.00000   0.04368  -0.12208  -0.00000  -0.06693
           d3           0.00000   0.00000  -0.00000   0.00000  -0.00000
           d4           0.00000  -0.00000   0.00000   0.00000   0.00000
           a3          -0.00000   0.13170   0.02779  -0.00000   0.01540
           d5           0.00000   0.00000  -0.00000   0.00000   0.00000
           a4           0.00000   0.00000  -0.00000   0.00000  -0.00000
           t3          -0.00000   0.00000   0.00690   0.00000   0.00000
           d6           0.00000   0.00000   0.00000   0.00000  -0.00000
           a5           0.00000   0.00000  -0.00000   0.00000   0.00000
           t4          -0.00000   0.00000   0.00230   0.00000   0.00000
           d7           0.00000   0.00000  -0.00000   0.00000   0.00000
           a6           0.00000   0.00000   0.00000   0.00000  -0.00000
           t5           0.00000   0.00000   0.00230   0.00000   0.00000
                          t2        d3        d4        a3        d5
           t2           0.17010
           d3          -0.00000   0.27724
           d4          -0.00000  -0.00000   0.35842
           a3           0.01926   0.00000  -0.00000   0.30241
           d5          -0.00000  -0.00000  -0.00000   0.00000   0.32299
           a4          -0.00000   0.00000   0.00000  -0.00000  -0.00000
           t3           0.00690  -0.00000   0.00000   0.00000  -0.00000
           d6          -0.00000   0.00000   0.00000  -0.00000   0.00000
           a5           0.00000  -0.00000  -0.00000  -0.00000   0.00000
           t4           0.00230  -0.00000   0.00000  -0.00000  -0.00000
           d7          -0.00000  -0.00000  -0.00000   0.00000   0.00000
           a6           0.00000   0.00000   0.00000  -0.00000  -0.00000
           t5           0.00230  -0.00000  -0.00000   0.00000   0.00000
                          a4        t3        d6        a5        t4
           a4           0.24396
           t3           0.00014   0.02088
           d6          -0.00000  -0.00000   0.34907
           a5           0.01757  -0.00026   0.00000   0.25867
           t4          -0.05372   0.00768  -0.00000   0.03213   0.21413
           d7          -0.00000  -0.00000  -0.00000   0.00000  -0.00000
           a6           0.04602  -0.00013   0.00000   0.07740   0.06540
           t5           0.07563   0.00590  -0.00000  -0.07400  -0.07384
                          d7        a6        t5
           d7           0.38045
           a6          -0.00000   0.26363
           t5           0.00000  -0.01088   0.17588
     Eigenvalues --- 1000.000001000.000001000.000001000.000001000.00000
     Eigenvalues --- 1000.000001000.000001000.000001000.000001000.00000
     Eigenvalues --- 1000.000001000.000001000.000001000.000001000.00000
     Eigenvalues --- 1000.000001000.000001000.00000
 Angle between quadratic step and forces=  90.00 degrees.
 Linear search not attempted -- first point.
 Variable       Old X    -DE/DX   Delta X   Delta X   Delta X     New X
                                 (Linear)    (Quad)   (Total)
    d1        2.94569  -0.00628   0.00000   0.00000   0.00000   2.94569
    a1        2.27179  -0.04210   0.00000   0.00000   0.00000   2.27179
    t1        1.85032   0.00384   0.00000   0.00000   0.00000   1.85032
    d2        2.12625  -0.01874   0.00000   0.00000   0.00000   2.12625
    a2        1.67217   0.02362   0.00000   0.00000   0.00000   1.67217
    t2       -2.62310   0.02477   0.00000   0.00000   0.00000  -2.62310
    d3        2.19446  -0.02608   0.00000   0.00000   0.00000   2.19446
    d4        2.04329   0.00847   0.00000   0.00000   0.00000   2.04329
    a3        2.04197  -0.01590   0.00000   0.00000   0.00000   2.04197
    d5        2.10301  -0.00851   0.00000   0.00000   0.00000   2.10301
    a4        1.77641   0.01305   0.00000   0.00000   0.00000   1.77641
    t3        3.14059   0.00725   0.00000   0.00000   0.00000   3.14059
    d6        2.05827   0.00248   0.00000   0.00000   0.00000   2.05827
    a5        1.88937   0.01023   0.00000   0.00000   0.00000   1.88937
    t4        1.85521   0.02623   0.00000   0.00000   0.00000   1.85521
    d7        2.00999   0.01969   0.00000   0.00000   0.00000   2.00999
    a6        2.10068  -0.00607   0.00000   0.00000   0.00000   2.10068
    t5       -2.10577  -0.00517   0.00000   0.00000   0.00000  -2.10577
         Item               Value     Threshold  Converged?
 Maximum Force            0.000000     0.000450     YES
 RMS     Force            0.000000     0.000300     YES
 Maximum Displacement     0.000000     0.001800     YES
 RMS     Displacement     0.000000     0.001200     YES
 Predicted change in Energy=-0.000000D+00
 Optimization completed.
    -- Stationary point found.
                       ----------------------------
                       !   Optimized Parameters   !
                       ! (Angstroms and Degrees)  !
 ----------------------                            ----------------------
 !      Name          Value   Derivative information (Atomic Units)     !
 ------------------------------------------------------------------------
 !       d1          1.5588   -DE/DX =   -0.0063                        !
 !       a1        130.1642   -DE/DX =   -0.0421                        !
 !       t1        106.0154   -DE/DX =    0.0038                        !
 !       d2          1.1252   -DE/DX =   -0.0187                        !
 !       a2         95.8084   -DE/DX =    0.0236                        !
 !       t2       -150.2924   -DE/DX =    0.0248                        !
 !       d3          1.1613   -DE/DX =   -0.0261                        !
 !       d4          1.0813   -DE/DX =    0.0085                        !
 !       a3        116.9965   -DE/DX =   -0.0159                        !
 !       d5          1.1129   -DE/DX =   -0.0085                        !
 !       a4        101.7808   -DE/DX =    0.0131                        !
 !       t3        179.9427   -DE/DX =    0.0073                        !
 !       d6          1.0892   -DE/DX =    0.0025                        !
 !       a5        108.253    -DE/DX =    0.0102                        !
 !       t4        106.296    -DE/DX =    0.0262                        !
 !       d7          1.0636   -DE/DX =    0.0197                        !
 !       a6        120.36     -DE/DX =   -0.0061                        !
 !       t5       -120.6519   -DE/DX =   -0.0052                        !
 ------------------------------------------------------------------------
 GradGradGradGradGradGradGradGradGradGradGradGradGradGradGradGradGradGrad

 Leave Link  103 at Wed May 26 19:16:09 2021, MaxMem=   13107200 cpu:       0.0
 (Enter /programs/64bit/g09/g09-gfortran/bin/l9999.exe)
 1\1\GINC-MOLMOD\Force\RB3LYP\6-31+G(d,p)\C2H6\OSPITE\26-May-2021\1\\#p
  b3lyp/6-31+g(d,p) force nosym\\c2h6 molecule\\0,1\C\C,1,d1\H,1,d2,2,a
 1\H,1,d3,2,a2,3,t1,0\H,1,d4,2,a3,3,t2,0\H,2,d5,1,a4,3,t3,0\H,2,d6,1,a5
 ,6,t4,0\H,2,d7,1,a6,6,t5,0\\d1=1.55879168\a1=130.16424676\t1=106.01536
 53\d2=1.125163\a2=95.8084084\t2=-150.29238395\d3=1.16125614\d4=1.08126
 102\a3=116.99645829\d5=1.11286412\a4=101.78080628\t3=179.94270276\d6=1
 .08918847\a5=108.25299196\t4=106.29595807\d7=1.06364164\a6=120.3599723
 6\t5=-120.65193931\\Version=EM64L-G09RevA.02\HF=-79.8150588\RMSD=7.749
 e-09\RMSF=2.002e-02\Dipole=-0.0684449,-0.0715472,0.0263915\Quadrupole=
 -0.0140862,-0.0766777,0.0907639,-0.0344904,-0.1321048,-0.1044888\PG=C0
 1 [X(C2H6)]\\@


 CHRISTMAS IS ON TOP OF A STEEP HILL.
 THE CLOSER YOU GET, THE STEEPER THE HILL IS.
          -- LINUS, OF PEANUTS
 Job cpu time:  0 days  0 hours  0 minutes  8.3 seconds.
 File lengths (MBytes):  RWF=      5 Int=      0 D2E=      0 Chk=      1 Scr=      1
 Normal termination of Gaussian 09 at Wed May 26 19:16:09 2021.
