 Entering Gaussian System, Link 0=g09
 Input=c2h6_058.com
 Output=c2h6_058.log
 Initial command:
 /programs/64bit/g09/g09-gfortran/bin/l1.exe /data/scratch/Gau-7325.inp -scrdir=/data/scratch/
 Entering Link 1 = /programs/64bit/g09/g09-gfortran/bin/l1.exe PID=      7326.
  
 Copyright (c) 1988,1990,1992,1993,1995,1998,2003,2009, Gaussian, Inc.
                  All Rights Reserved.
  
 This is part of the Gaussian(R) 09 program.  It is based on
 the Gaussian(R) 03 system (copyright 2003, Gaussian, Inc.),
 the Gaussian(R) 98 system (copyright 1998, Gaussian, Inc.),
 the Gaussian(R) 94 system (copyright 1995, Gaussian, Inc.),
 the Gaussian 92(TM) system (copyright 1992, Gaussian, Inc.),
 the Gaussian 90(TM) system (copyright 1990, Gaussian, Inc.),
 the Gaussian 88(TM) system (copyright 1988, Gaussian, Inc.),
 the Gaussian 86(TM) system (copyright 1986, Carnegie Mellon
 University), and the Gaussian 82(TM) system (copyright 1983,
 Carnegie Mellon University). Gaussian is a federally registered
 trademark of Gaussian, Inc.
  
 This software contains proprietary and confidential information,
 including trade secrets, belonging to Gaussian, Inc.
  
 This software is provided under written license and may be
 used, copied, transmitted, or stored only in accord with that
 written license.
  
 The following legend is applicable only to US Government
 contracts under FAR:
  
                    RESTRICTED RIGHTS LEGEND
  
 Use, reproduction and disclosure by the US Government is
 subject to restrictions as set forth in subparagraphs (a)
 and (c) of the Commercial Computer Software - Restricted
 Rights clause in FAR 52.227-19.
  
 Gaussian, Inc.
 340 Quinnipiac St., Bldg. 40, Wallingford CT 06492
  
  
 ---------------------------------------------------------------
 Warning -- This program may not be used in any manner that
 competes with the business of Gaussian, Inc. or will provide
 assistance to any competitor of Gaussian, Inc.  The licensee
 of this program is prohibited from giving any competitor of
 Gaussian, Inc. access to this program.  By using this program,
 the user acknowledges that Gaussian, Inc. is engaged in the
 business of creating and licensing software in the field of
 computational chemistry and represents and warrants to the
 licensee that it is not a competitor of Gaussian, Inc. and that
 it will not use this program in any manner prohibited above.
 ---------------------------------------------------------------
  

 Cite this work as:
 Gaussian 09, Revision A.02,
 M. J. Frisch, G. W. Trucks, H. B. Schlegel, G. E. Scuseria, 
 M. A. Robb, J. R. Cheeseman, G. Scalmani, V. Barone, B. Mennucci, 
 G. A. Petersson, H. Nakatsuji, M. Caricato, X. Li, H. P. Hratchian, 
 A. F. Izmaylov, J. Bloino, G. Zheng, J. L. Sonnenberg, M. Hada, 
 M. Ehara, K. Toyota, R. Fukuda, J. Hasegawa, M. Ishida, T. Nakajima, 
 Y. Honda, O. Kitao, H. Nakai, T. Vreven, J. A. Montgomery, Jr., 
 J. E. Peralta, F. Ogliaro, M. Bearpark, J. J. Heyd, E. Brothers, 
 K. N. Kudin, V. N. Staroverov, R. Kobayashi, J. Normand, 
 K. Raghavachari, A. Rendell, J. C. Burant, S. S. Iyengar, J. Tomasi, 
 M. Cossi, N. Rega, J. M. Millam, M. Klene, J. E. Knox, J. B. Cross, 
 V. Bakken, C. Adamo, J. Jaramillo, R. Gomperts, R. E. Stratmann, 
 O. Yazyev, A. J. Austin, R. Cammi, C. Pomelli, J. W. Ochterski, 
 R. L. Martin, K. Morokuma, V. G. Zakrzewski, G. A. Voth, 
 P. Salvador, J. J. Dannenberg, S. Dapprich, A. D. Daniels, 
 O. Farkas, J. B. Foresman, J. V. Ortiz, J. Cioslowski, 
 and D. J. Fox, Gaussian, Inc., Wallingford CT, 2009.
 
 ******************************************
 Gaussian 09:  EM64L-G09RevA.02 11-Jun-2009
                26-May-2021 
 ******************************************
 %chk=c2h6_058.chk
 %mem=100MB
 --------------------------------
 #p b3lyp/6-31+g(d,p) force nosym
 --------------------------------
 1/10=7,30=1,38=1/1,3;
 2/12=2,15=1,17=6,18=5,40=1/2;
 3/5=1,6=6,7=111,11=2,16=1,25=1,30=1,71=1,74=-5/1,2,3;
 4//1;
 5/5=2,38=5/2;
 6/7=2,8=2,9=2,10=2,28=1/1;
 7/29=1,30=1/1,2,3,16;
 1/10=7,30=1/3;
 99//99;
 Leave Link    1 at Wed May 26 19:17:30 2021, MaxMem=   13107200 cpu:       0.0
 (Enter /programs/64bit/g09/g09-gfortran/bin/l101.exe)
 -------------
 c2h6 molecule
 -------------
 Symbolic Z-matrix:
 Charge =  0 Multiplicity = 1
 C1
 C2                   1    d1
 H3                   1    d2       2    a1
 H4                   1    d3       2    a2       3    t1       0
 H5                   1    d4       2    a3       3    t2       0
 H6                   2    d5       1    a4       3    t3       0
 H7                   2    d6       1    a5       6    t4       0
 H8                   2    d7       1    a6       6    t5       0
       Variables:
       Constants:
  d1                    1.53746                  
  a1                  111.62992                  
  t1                  107.37919                  
  d2                    1.09257                  
  a2                  104.49889                  
  t2                 -142.18979                  
  d3                    1.10435                  
  d4                    1.08984                  
  a3                  113.9475                   
  d5                    1.09655                  
  a4                  106.04872                  
  t3                  179.01284                  
  d6                    1.09702                  
  a5                  114.58312                  
  t4                  113.46242                  
  d7                    1.09425                  
  a6                  114.42191                  
  t5                 -123.12473                  
 
 NAtoms=      8 NQM=      8 NQMF=      0 NMic=      0 NMicF=      0 NTot=      8.
                    Isotopes and Nuclear Properties:
 (Nuclear quadrupole moments (NQMom) in fm**2, nuclear magnetic moments (NMagM)
  in nuclear magnetons)

  Atom         1           2           3           4           5           6           7           8
 IAtWgt=          12          12           1           1           1           1           1           1
 AtmWgt=  12.0000000  12.0000000   1.0078250   1.0078250   1.0078250   1.0078250   1.0078250   1.0078250
 NucSpn=           0           0           1           1           1           1           1           1
 AtZEff=   0.0000000   0.0000000   0.0000000   0.0000000   0.0000000   0.0000000   0.0000000   0.0000000
 NQMom=    0.0000000   0.0000000   0.0000000   0.0000000   0.0000000   0.0000000   0.0000000   0.0000000
 NMagM=    0.0000000   0.0000000   2.7928460   2.7928460   2.7928460   2.7928460   2.7928460   2.7928460
 Leave Link  101 at Wed May 26 19:17:30 2021, MaxMem=   13107200 cpu:       0.0
 (Enter /programs/64bit/g09/g09-gfortran/bin/l103.exe)

 GradGradGradGradGradGradGradGradGradGradGradGradGradGradGradGradGradGrad
 Berny optimization.
 Initialization pass.
                       ----------------------------
                       !    Initial Parameters    !
                       ! (Angstroms and Degrees)  !
 ----------------------                            ----------------------
 !      Name          Value   Derivative information (Atomic Units)     !
 ------------------------------------------------------------------------
 !       d1          1.5375   Frozen                                    !
 !       a1        111.6299   Frozen                                    !
 !       t1        107.3792   Frozen                                    !
 !       d2          1.0926   Frozen                                    !
 !       a2        104.4989   Frozen                                    !
 !       t2       -142.1898   Frozen                                    !
 !       d3          1.1044   Frozen                                    !
 !       d4          1.0898   Frozen                                    !
 !       a3        113.9475   Frozen                                    !
 !       d5          1.0965   Frozen                                    !
 !       a4        106.0487   Frozen                                    !
 !       t3        179.0128   Frozen                                    !
 !       d6          1.097    Frozen                                    !
 !       a5        114.5831   Frozen                                    !
 !       t4        113.4624   Frozen                                    !
 !       d7          1.0942   Frozen                                    !
 !       a6        114.4219   Frozen                                    !
 !       t5       -123.1247   Frozen                                    !
 ------------------------------------------------------------------------
 Trust Radius=3.00D-01 FncErr=1.00D-07 GrdErr=1.00D-07
 Number of steps in this run=   2 maximum allowed number of steps=   2.
 GradGradGradGradGradGradGradGradGradGradGradGradGradGradGradGradGradGrad

 Leave Link  103 at Wed May 26 19:17:30 2021, MaxMem=   13107200 cpu:       0.0
 (Enter /programs/64bit/g09/g09-gfortran/bin/l202.exe)
                          Input orientation:                          
 ---------------------------------------------------------------------
 Center     Atomic      Atomic             Coordinates (Angstroms)
 Number     Number       Type             X           Y           Z
 ---------------------------------------------------------------------
      1          6           0        0.000000    0.000000    0.000000
      2          6           0        0.000000    0.000000    1.537459
      3          1           0        1.015632    0.000000   -0.402731
      4          1           0       -0.319358   -1.020372   -0.276487
      5          1           0       -0.786904    0.610610   -0.442365
      6          1           0       -1.053657    0.018155    1.840605
      7          1           0        0.381361   -0.921812    1.993833
      8          1           0        0.558760    0.824916    1.989879
 ---------------------------------------------------------------------
                    Distance matrix (angstroms):
                    1          2          3          4          5
     1  C    0.000000
     2  C    1.537459   0.000000
     3  H    1.092566   2.189942   0.000000
     4  H    1.104352   2.105599   1.685021   0.000000
     5  H    1.089839   2.216251   1.903564   1.704763   0.000000
     6  H    2.120931   1.096550   3.052023   2.469780   2.373629
     7  H    2.229471   1.097019   2.644911   2.378040   3.106159
     8  H    2.225380   1.094250   2.571731   3.051654   2.787930
                    6          7          8
     6  H    0.000000
     7  H    1.722293   0.000000
     8  H    1.809153   1.755718   0.000000
 Symmetry turned off by external request.
 Stoichiometry    C2H6
 Framework group  C1[X(C2H6)]
 Deg. of freedom    18
 Full point group                 C1      NOp   1
 Rotational constants (GHZ):     80.2029299     20.0021355     19.6813502
 Leave Link  202 at Wed May 26 19:17:30 2021, MaxMem=   13107200 cpu:       0.0
 (Enter /programs/64bit/g09/g09-gfortran/bin/l301.exe)
 Standard basis: 6-31+G(d,p) (6D, 7F)
 Ernie: Thresh=  0.10000D-02 Tol=  0.10000D-05 Strict=F.
 Integral buffers will be    131072 words long.
 Raffenetti 2 integral format.
 Two-electron integral symmetry is turned off.
    68 basis functions,   106 primitive gaussians,    68 cartesian basis functions
     9 alpha electrons        9 beta electrons
       nuclear repulsion energy        42.0910345569 Hartrees.
 IExCor=  402 DFT=T Ex+Corr=B3LYP ExCW=0 ScaHFX=  0.200000
 ScaDFX=  0.800000  0.720000  1.000000  0.810000 ScalE2=  1.000000  1.000000
 IRadAn=      0 IRanWt=     -1 IRanGd=            0 ICorTp=0
 NAtoms=    8 NActive=    8 NUniq=    8 SFac= 7.50D-01 NAtFMM=   80 NAOKFM=F Big=F
 Leave Link  301 at Wed May 26 19:17:30 2021, MaxMem=   13107200 cpu:       0.0
 (Enter /programs/64bit/g09/g09-gfortran/bin/l302.exe)
 NPDir=0 NMtPBC=     1 NCelOv=     1 NCel=       1 NClECP=     1 NCelD=      1
         NCelK=      1 NCelE2=     1 NClLst=     1 CellRange=     0.0.
 One-electron integrals computed using PRISM.
 NBasis=    68 RedAO= T  NBF=    68
 NBsUse=    68 1.00D-06 NBFU=    68
 Precomputing XC quadrature grid using
 IXCGrd= 2 IRadAn=           0 IRanWt=          -1 IRanGd=           0 AccXCQ= 1.00D-10.
 NRdTot=     510 NPtTot=       65100 NUsed=       68787 NTot=       68819
 NSgBfM=    68    68    68    68    68 NAtAll=     8     8.
 Leave Link  302 at Wed May 26 19:17:30 2021, MaxMem=   13107200 cpu:       0.1
 (Enter /programs/64bit/g09/g09-gfortran/bin/l303.exe)
 DipDrv:  MaxL=1.
 Leave Link  303 at Wed May 26 19:17:30 2021, MaxMem=   13107200 cpu:       0.0
 (Enter /programs/64bit/g09/g09-gfortran/bin/l401.exe)
 Harris functional with IExCor=  402 diagonalized for initial guess.
 ExpMin= 4.38D-02 ExpMax= 3.05D+03 ExpMxC= 4.57D+02 IAcc=2 IRadAn=         0 AccDes= 0.00D+00
 HarFok:  IExCor=  402 AccDes= 0.00D+00 IRadAn=         0 IDoV= 1
 ScaDFX=  1.000000  1.000000  1.000000  1.000000
 FoFCou: FMM=F IPFlag=           0 FMFlag=      100000 FMFlg1=           0
         NFxFlg=           0 DoJE=T BraDBF=F KetDBF=T FulRan=T
         Omega=  0.000000  0.000000  1.000000  0.000000  0.000000 ICntrl=     500 IOpCl=  0
         NMat0=    1 NMatS0=    1 NMatT0=    0 NMatD0=    1 NMtDS0=    0 NMtDT0=    0
         I1Cent=           4 NGrid=           0.
 Symmetry not used in FoFCou.
 Harris En= -79.8887507991038    
 Leave Link  401 at Wed May 26 19:17:31 2021, MaxMem=   13107200 cpu:       0.6
 (Enter /programs/64bit/g09/g09-gfortran/bin/l502.exe)
 Closed shell SCF:
 Requested convergence on RMS density matrix=1.00D-08 within 128 cycles.
 Requested convergence on MAX density matrix=1.00D-06.
 Requested convergence on             energy=1.00D-06.
 No special actions if energy rises.
 Using DIIS extrapolation, IDIIS=  1040.
 Two-electron integral symmetry not used.
        68702 words used for storage of precomputed grid.
 Keep R1 ints in memory in canonical form, NReq=3743087.
 IEnd=      101552 IEndB=      101552 NGot=    13107200 MDV=    10273922
 LenX=    10273922 LenY=    10268857
 Symmetry not used in FoFDir.
 MinBra= 0 MaxBra= 2 Meth= 1.
 IRaf=       0 NMat=   1 IRICut=       1 DoRegI=T DoRafI=F ISym2E= 0 JSym2E=0.

 Cycle   1  Pass 1  IDiag  1:
 E= -79.7008582318329    
 DIIS: error= 4.00D-02 at cycle   1 NSaved=   1.
 NSaved= 1 IEnMin= 1 EnMin= -79.7008582318329     IErMin= 1 ErrMin= 4.00D-02
 ErrMax= 4.00D-02 EMaxC= 1.00D-01 BMatC= 1.15D-01 BMatP= 1.15D-01
 IDIUse=3 WtCom= 6.00D-01 WtEn= 4.00D-01
 Coeff-Com:  0.100D+01
 Coeff-En:   0.100D+01
 Coeff:      0.100D+01
 Gap=     0.265 Goal=   None    Shift=    0.000
 GapD=    0.265 DampG=1.000 DampE=0.500 DampFc=0.5000 IDamp=-1.
 Damping current iteration by 5.00D-01
 RMSDP=9.74D-03 MaxDP=1.43D-01              OVMax= 2.04D-01

 Cycle   2  Pass 1  IDiag  1:
 E= -79.7548331871154     Delta-E=       -0.053974955282 Rises=F Damp=T
 DIIS: error= 1.13D-02 at cycle   2 NSaved=   2.
 NSaved= 2 IEnMin= 2 EnMin= -79.7548331871154     IErMin= 2 ErrMin= 1.13D-02
 ErrMax= 1.13D-02 EMaxC= 1.00D-01 BMatC= 4.77D-03 BMatP= 1.15D-01
 IDIUse=3 WtCom= 8.87D-01 WtEn= 1.13D-01
 Coeff-Com:  0.112D+00 0.888D+00
 Coeff-En:   0.192D+00 0.808D+00
 Coeff:      0.121D+00 0.879D+00
 Gap=     0.377 Goal=   None    Shift=    0.000
 RMSDP=1.35D-03 MaxDP=1.12D-02 DE=-5.40D-02 OVMax= 1.19D-01

 Cycle   3  Pass 1  IDiag  1:
 E= -79.8317009521820     Delta-E=       -0.076867765067 Rises=F Damp=F
 DIIS: error= 1.78D-03 at cycle   3 NSaved=   3.
 NSaved= 3 IEnMin= 3 EnMin= -79.8317009521820     IErMin= 3 ErrMin= 1.78D-03
 ErrMax= 1.78D-03 EMaxC= 1.00D-01 BMatC= 1.87D-04 BMatP= 4.77D-03
 IDIUse=3 WtCom= 9.82D-01 WtEn= 1.78D-02
 Coeff-Com:  0.849D-02 0.122D+00 0.869D+00
 Coeff-En:   0.000D+00 0.000D+00 0.100D+01
 Coeff:      0.834D-02 0.120D+00 0.872D+00
 Gap=     0.348 Goal=   None    Shift=    0.000
 RMSDP=2.29D-04 MaxDP=2.10D-03 DE=-7.69D-02 OVMax= 4.59D-03

 Cycle   4  Pass 1  IDiag  1:
 E= -79.8318655117647     Delta-E=       -0.000164559583 Rises=F Damp=F
 DIIS: error= 4.08D-04 at cycle   4 NSaved=   4.
 NSaved= 4 IEnMin= 4 EnMin= -79.8318655117647     IErMin= 4 ErrMin= 4.08D-04
 ErrMax= 4.08D-04 EMaxC= 1.00D-01 BMatC= 1.17D-05 BMatP= 1.87D-04
 IDIUse=3 WtCom= 9.96D-01 WtEn= 4.08D-03
 Coeff-Com: -0.515D-03-0.495D-02 0.189D+00 0.816D+00
 Coeff-En:   0.000D+00 0.000D+00 0.000D+00 0.100D+01
 Coeff:     -0.512D-03-0.493D-02 0.188D+00 0.817D+00
 Gap=     0.348 Goal=   None    Shift=    0.000
 RMSDP=5.07D-05 MaxDP=4.29D-04 DE=-1.65D-04 OVMax= 1.13D-03

 Cycle   5  Pass 1  IDiag  1:
 E= -79.8318768513518     Delta-E=       -0.000011339587 Rises=F Damp=F
 DIIS: error= 3.92D-05 at cycle   5 NSaved=   5.
 NSaved= 5 IEnMin= 5 EnMin= -79.8318768513518     IErMin= 5 ErrMin= 3.92D-05
 ErrMax= 3.92D-05 EMaxC= 1.00D-01 BMatC= 1.45D-07 BMatP= 1.17D-05
 IDIUse=1 WtCom= 1.00D+00 WtEn= 0.00D+00
 Coeff-Com:  0.130D-03-0.200D-02 0.482D-01 0.225D+00 0.729D+00
 Coeff:      0.130D-03-0.200D-02 0.482D-01 0.225D+00 0.729D+00
 Gap=     0.348 Goal=   None    Shift=    0.000
 RMSDP=7.24D-06 MaxDP=1.07D-04 DE=-1.13D-05 OVMax= 1.54D-04

 Cycle   6  Pass 1  IDiag  1:
 E= -79.8318769819194     Delta-E=       -0.000000130568 Rises=F Damp=F
 DIIS: error= 2.50D-05 at cycle   6 NSaved=   6.
 NSaved= 6 IEnMin= 6 EnMin= -79.8318769819194     IErMin= 6 ErrMin= 2.50D-05
 ErrMax= 2.50D-05 EMaxC= 1.00D-01 BMatC= 2.74D-08 BMatP= 1.45D-07
 IDIUse=1 WtCom= 1.00D+00 WtEn= 0.00D+00
 Coeff-Com:  0.178D-03-0.502D-03 0.402D-02 0.247D-01 0.316D+00 0.655D+00
 Coeff:      0.178D-03-0.502D-03 0.402D-02 0.247D-01 0.316D+00 0.655D+00
 Gap=     0.348 Goal=   None    Shift=    0.000
 RMSDP=2.22D-06 MaxDP=4.91D-05 DE=-1.31D-07 OVMax= 5.86D-05

 Cycle   7  Pass 1  IDiag  1:
 E= -79.8318770073889     Delta-E=       -0.000000025469 Rises=F Damp=F
 DIIS: error= 5.82D-06 at cycle   7 NSaved=   7.
 NSaved= 7 IEnMin= 7 EnMin= -79.8318770073889     IErMin= 7 ErrMin= 5.82D-06
 ErrMax= 5.82D-06 EMaxC= 1.00D-01 BMatC= 1.77D-09 BMatP= 2.74D-08
 IDIUse=1 WtCom= 1.00D+00 WtEn= 0.00D+00
 Coeff-Com:  0.752D-04-0.873D-04-0.184D-02-0.593D-02 0.825D-01 0.283D+00
 Coeff-Com:  0.643D+00
 Coeff:      0.752D-04-0.873D-04-0.184D-02-0.593D-02 0.825D-01 0.283D+00
 Coeff:      0.643D+00
 Gap=     0.348 Goal=   None    Shift=    0.000
 RMSDP=6.20D-07 MaxDP=9.55D-06 DE=-2.55D-08 OVMax= 1.38D-05

 Cycle   8  Pass 1  IDiag  1:
 E= -79.8318770092108     Delta-E=       -0.000000001822 Rises=F Damp=F
 DIIS: error= 1.86D-07 at cycle   8 NSaved=   8.
 NSaved= 8 IEnMin= 8 EnMin= -79.8318770092108     IErMin= 8 ErrMin= 1.86D-07
 ErrMax= 1.86D-07 EMaxC= 1.00D-01 BMatC= 4.22D-12 BMatP= 1.77D-09
 IDIUse=1 WtCom= 1.00D+00 WtEn= 0.00D+00
 Coeff-Com:  0.111D-06 0.126D-06-0.189D-03-0.737D-03 0.724D-03 0.105D-01
 Coeff-Com:  0.580D-01 0.932D+00
 Coeff:      0.111D-06 0.126D-06-0.189D-03-0.737D-03 0.724D-03 0.105D-01
 Coeff:      0.580D-01 0.932D+00
 Gap=     0.348 Goal=   None    Shift=    0.000
 RMSDP=4.13D-08 MaxDP=4.89D-07 DE=-1.82D-09 OVMax= 7.23D-07

 Cycle   9  Pass 1  IDiag  1:
 E= -79.8318770092155     Delta-E=       -0.000000000005 Rises=F Damp=F
 DIIS: error= 2.57D-08 at cycle   9 NSaved=   9.
 NSaved= 9 IEnMin= 9 EnMin= -79.8318770092155     IErMin= 9 ErrMin= 2.57D-08
 ErrMax= 2.57D-08 EMaxC= 1.00D-01 BMatC= 6.54D-14 BMatP= 4.22D-12
 IDIUse=1 WtCom= 1.00D+00 WtEn= 0.00D+00
 Coeff-Com: -0.884D-06 0.706D-06-0.139D-04-0.699D-04-0.767D-03-0.102D-02
 Coeff-Com:  0.426D-02 0.165D+00 0.832D+00
 Coeff:     -0.884D-06 0.706D-06-0.139D-04-0.699D-04-0.767D-03-0.102D-02
 Coeff:      0.426D-02 0.165D+00 0.832D+00
 Gap=     0.348 Goal=   None    Shift=    0.000
 RMSDP=5.28D-09 MaxDP=6.28D-08 DE=-4.75D-12 OVMax= 9.05D-08

 SCF Done:  E(RB3LYP) =  -79.8318770092     A.U. after    9 cycles
             Convg  =    0.5282D-08             -V/T =  2.0109
 KE= 7.896793433582D+01 PE=-2.678995846352D+02 EE= 6.700873873324D+01
 Leave Link  502 at Wed May 26 19:17:36 2021, MaxMem=   13107200 cpu:       5.0
 (Enter /programs/64bit/g09/g09-gfortran/bin/l601.exe)
 Copying SCF densities to generalized density rwf, IOpCl= 0 IROHF=0.

 **********************************************************************

            Population analysis using the SCF density.

 **********************************************************************

 Alpha  occ. eigenvalues --  -10.17902 -10.17795  -0.75393  -0.61770  -0.44651
 Alpha  occ. eigenvalues --   -0.42669  -0.37157  -0.34738  -0.33079
 Alpha virt. eigenvalues --    0.01685   0.03012   0.05170   0.05534   0.08010
 Alpha virt. eigenvalues --    0.08821   0.09100   0.14263   0.15039   0.20011
 Alpha virt. eigenvalues --    0.20659   0.23951   0.25316   0.29326   0.32913
 Alpha virt. eigenvalues --    0.62030   0.64229   0.64863   0.67312   0.68342
 Alpha virt. eigenvalues --    0.70008   0.88662   0.91999   0.94265   0.99886
 Alpha virt. eigenvalues --    1.01389   1.09891   1.10284   1.30928   1.34113
 Alpha virt. eigenvalues --    1.46438   1.65696   1.70452   1.88203   1.93346
 Alpha virt. eigenvalues --    2.03069   2.08734   2.11081   2.17113   2.17982
 Alpha virt. eigenvalues --    2.24947   2.28932   2.37872   2.45669   2.53247
 Alpha virt. eigenvalues --    2.67148   2.73548   2.76983   2.82305   2.85795
 Alpha virt. eigenvalues --    2.94040   3.21739   3.29507   3.37809   3.41336
 Alpha virt. eigenvalues --    3.48522   3.55301   4.34085   4.58818
          Condensed to atoms (all electrons):
              1          2          3          4          5          6
     1  C    5.098570   0.259091   0.398775   0.411387   0.409031  -0.048853
     2  C    0.259091   5.105585  -0.039056  -0.061997  -0.042533   0.403026
     3  H    0.398775  -0.039056   0.547228  -0.037666  -0.016831   0.004728
     4  H    0.411387  -0.061997  -0.037666   0.589205  -0.036855  -0.003083
     5  H    0.409031  -0.042533  -0.016831  -0.036855   0.538323  -0.006734
     6  H   -0.048853   0.403026   0.004728  -0.003083  -0.006734   0.566934
     7  H   -0.044209   0.408737  -0.001003  -0.008829   0.004059  -0.033379
     8  H   -0.035940   0.396965  -0.005362   0.005098  -0.001514  -0.024472
              7          8
     1  C   -0.044209  -0.035940
     2  C    0.408737   0.396965
     3  H   -0.001003  -0.005362
     4  H   -0.008829   0.005098
     5  H    0.004059  -0.001514
     6  H   -0.033379  -0.024472
     7  H    0.562385  -0.032592
     8  H   -0.032592   0.551788
 Mulliken atomic charges:
              1
     1  C   -0.447852
     2  C   -0.429818
     3  H    0.149186
     4  H    0.142739
     5  H    0.153053
     6  H    0.141832
     7  H    0.144831
     8  H    0.146028
 Sum of Mulliken atomic charges =  -0.00000
 Mulliken charges with hydrogens summed into heavy atoms:
              1
     1  C   -0.002873
     2  C    0.002873
 Sum of Mulliken charges with hydrogens summed into heavy atoms =  -0.00000
 Electronic spatial extent (au):  <R**2>=            149.2117
 Charge=             -0.0000 electrons
 Dipole moment (field-independent basis, Debye):
    X=             -0.0632    Y=             -0.1603    Z=             -0.0086  Tot=              0.1725
 Quadrupole moment (field-independent basis, Debye-Ang):
   XX=            -14.7640   YY=            -15.4110   ZZ=            -15.8329
   XY=             -0.1397   XZ=              0.1628   YZ=             -0.1459
 Traceless Quadrupole moment (field-independent basis, Debye-Ang):
   XX=              0.5720   YY=             -0.0750   ZZ=             -0.4969
   XY=             -0.1397   XZ=              0.1628   YZ=             -0.1459
 Octapole moment (field-independent basis, Debye-Ang**2):
  XXX=              0.2683  YYY=              0.7113  ZZZ=            -36.5527  XYY=              0.2716
  XXY=              0.6875  XXZ=            -11.9106  XZZ=              0.5751  YZZ=              0.0567
  YYZ=            -11.5331  XYZ=              0.4306
 Hexadecapole moment (field-independent basis, Debye-Ang**3):
 XXXX=            -31.3291 YYYY=            -31.3374 ZZZZ=           -155.3451 XXXY=             -0.2356
 XXXZ=             -0.8187 YYYX=              0.1615 YYYZ=              0.0481 ZZZX=              1.6437
 ZZZY=             -0.6424 XXYY=            -10.6415 XXZZ=            -30.0864 YYZZ=            -29.7275
 XXYZ=              0.1591 YYXZ=              1.1825 ZZXY=              0.4628
 N-N= 4.209103455688D+01 E-N=-2.678995841874D+02  KE= 7.896793433582D+01
 No NMR shielding tensors so no spin-rotation constants.
 Leave Link  601 at Wed May 26 19:17:36 2021, MaxMem=   13107200 cpu:       0.0
 (Enter /programs/64bit/g09/g09-gfortran/bin/l701.exe)
 Compute integral first derivatives.
 ... and contract with generalized density number  0.
 Leave Link  701 at Wed May 26 19:17:36 2021, MaxMem=   13107200 cpu:       0.0
 (Enter /programs/64bit/g09/g09-gfortran/bin/l702.exe)
 L702 exits ... SP integral derivatives will be done elsewhere.
 Leave Link  702 at Wed May 26 19:17:36 2021, MaxMem=   13107200 cpu:       0.0
 (Enter /programs/64bit/g09/g09-gfortran/bin/l703.exe)
 Compute integral first derivatives, UseDBF=F ICtDFT=           0.
 Integral derivatives from FoFDir, PRISM(SPDF).
 Calling FoFJK, ICntrl=      2127 FMM=F ISym2X=0 I1Cent= 0 IOpClX= 0 NMat=1 NMatS=1 NMatT=0.
 FoFCou: FMM=F IPFlag=           0 FMFlag=      100000 FMFlg1=         800
         NFxFlg=           0 DoJE=F BraDBF=F KetDBF=F FulRan=T
         Omega=  0.000000  0.000000  1.000000  0.000000  0.000000 ICntrl=    2127 IOpCl=  0
         NMat0=    1 NMatS0=    1 NMatT0=    0 NMatD0=    1 NMtDS0=    0 NMtDT0=    0
         I1Cent=           0 NGrid=           0.
 Symmetry not used in FoFCou.
 Leave Link  703 at Wed May 26 19:17:37 2021, MaxMem=   13107200 cpu:       1.2
 (Enter /programs/64bit/g09/g09-gfortran/bin/l716.exe)
 Dipole        =-2.48466789D-02-6.30814930D-02-3.36424892D-03
 -------------------------------------------------------------------
 Center     Atomic                   Forces (Hartrees/Bohr)
 Number     Number              X              Y              Z
 -------------------------------------------------------------------
      1        6           0.000449053   -0.043450788    0.010043676
      2        6          -0.010287940    0.000727092    0.001756067
      3        1          -0.002242236    0.018336880   -0.006815313
      4        1          -0.002661151    0.000696858   -0.001470499
      5        1           0.012174200    0.013958237   -0.002842322
      6        1           0.001592271    0.007063685    0.006985763
      7        1           0.005374288   -0.000686653   -0.006923654
      8        1          -0.004398485    0.003354689   -0.000733718
 -------------------------------------------------------------------
 Cartesian Forces:  Max     0.043450788 RMS     0.011285562
 -----------------------------------------------------------------------------------------------
                       Internal Coordinate Forces (Hartree/Bohr or radian)
  Cent   Atom   N1       Length/X         N2         Alpha/Y        N3         Beta/Z          J
 -----------------------------------------------------------------------------------------------
      1  C 
      2  C        1   0.001084(     1)
      3  H        1   0.000428(     2)      2   0.014787(     8)
      4  H        1   0.000494(     3)      2   0.002903(     9)      3   0.005552(    14)     0
      5  H        1   0.000184(     4)      2   0.006237(    10)      3   0.034804(    15)     0
      6  H        2   0.000518(     5)      1   0.014754(    11)      3   0.005147(    16)     0
      7  H        2  -0.000435(     6)      1  -0.015371(    12)      6   0.008867(    17)     0
      8  H        2  -0.000020(     7)      1  -0.001647(    13)      6   0.010399(    18)     0
 -----------------------------------------------------------------------------------------------
 Internal  Forces:  Max     0.034804006 RMS     0.011005375
 Force constants in Cartesian coordinates: 
                1             2             3             4             5 
      1  0.703115D+00
      2 -0.524551D-01  0.586782D+00
      3  0.334289D-02 -0.156113D-01  0.630122D+00
      4 -0.941803D-01  0.277244D-02  0.183631D-02  0.635762D+00
      5  0.275662D-02 -0.887453D-01  0.839739D-02  0.245565D-01  0.630876D+00
      6 -0.244802D-02 -0.170074D-02 -0.287452D+00  0.268078D-01 -0.420362D-02
      7 -0.305989D+00  0.443127D-02  0.870740D-01  0.990475D-02  0.197837D-03
      8  0.151577D-01 -0.734805D-01  0.665133D-02  0.706722D-03  0.259522D-02
      9  0.988282D-01  0.111751D-01 -0.125589D+00  0.249784D-01  0.498917D-03
     10 -0.928473D-01 -0.675851D-01 -0.208189D-01  0.106506D-02  0.183548D-02
     11 -0.685076D-01 -0.292207D+00 -0.614080D-01  0.173975D-02  0.603765D-02
     12 -0.234705D-01 -0.689902D-01 -0.813809D-01 -0.765072D-02 -0.244020D-01
     13 -0.224708D+00  0.112063D+00 -0.714343D-01  0.735301D-02 -0.397435D-02
     14  0.102275D+00 -0.150699D+00  0.619706D-01 -0.440769D-02  0.611149D-02
     15 -0.787006D-01  0.734265D-01 -0.135701D+00 -0.191640D-01  0.155057D-01
     16  0.736367D-02 -0.131587D-03  0.000000D+00 -0.316850D+00  0.328291D-02
     17 -0.385842D-03  0.863790D-03  0.000000D+00  0.100422D-02 -0.716444D-01
     18  0.256173D-01 -0.509095D-03  0.000000D+00  0.827178D-01 -0.470122D-02
     19  0.292128D-02 -0.371932D-02  0.000000D+00 -0.101477D+00  0.720313D-01
     20 -0.345386D-02  0.954815D-02  0.000000D+00  0.756953D-01 -0.260499D+00
     21 -0.941743D-02  0.223939D-01  0.000000D+00 -0.465402D-01  0.100671D+00
     22  0.432423D-02  0.462399D-02  0.000000D+00 -0.141577D+00 -0.100686D+00
     23  0.461309D-02  0.793777D-02  0.000000D+00 -0.102067D+00 -0.224732D+00
     24 -0.137519D-01 -0.201841D-01  0.000000D+00 -0.629855D-01 -0.917665D-01
                6             7             8             9            10 
      6  0.641808D+00
      7  0.000000D+00  0.306947D+00
      8  0.000000D+00 -0.208333D-02  0.542496D-01
      9  0.000000D+00 -0.964107D-01 -0.525388D-02  0.102043D+00
     10  0.000000D+00 -0.421126D-02 -0.311468D-01 -0.106202D-01  0.826332D-01
     11  0.000000D+00  0.758608D-03  0.578561D-02  0.191311D-02  0.722844D-01
     12  0.000000D+00  0.206461D-02  0.146247D-01  0.520667D-02  0.213299D-01
     13  0.000000D+00 -0.665212D-02  0.174246D-01 -0.167757D-01  0.134137D-01
     14  0.000000D+00 -0.330438D-02  0.108480D-01 -0.833320D-02  0.246102D-01
     15  0.000000D+00  0.727204D-02 -0.160221D-01  0.183391D-01  0.101092D-01
     16  0.697862D-01  0.000000D+00  0.121903D-04  0.000000D+00  0.110511D-04
     17 -0.378843D-02  0.000000D+00  0.707466D-03  0.000000D+00  0.641354D-03
     18 -0.978804D-01  0.000000D+00  0.000000D+00  0.000000D+00  0.000000D+00
     19 -0.400320D-01  0.000000D+00 -0.690681D-03  0.000000D+00 -0.626137D-03
     20  0.895902D-01  0.000000D+00 -0.285740D-03  0.000000D+00 -0.259038D-03
     21 -0.125728D+00  0.000000D+00  0.000000D+00  0.000000D+00  0.000000D+00
     22 -0.541140D-01  0.000000D+00  0.619621D-03  0.000000D+00  0.561718D-03
     23 -0.798974D-01  0.000000D+00 -0.419702D-03  0.000000D+00 -0.380482D-03
     24 -0.130748D+00  0.000000D+00  0.000000D+00  0.000000D+00  0.000000D+00
               11            12            13            14            15 
     11  0.291998D+00
     12  0.643333D-01  0.699948D-01
     13 -0.629191D-02  0.772662D-02  0.210557D+00
     14 -0.116138D-01  0.144342D-01 -0.119221D+00  0.145355D+00
     15 -0.483841D-02  0.617941D-02  0.804834D-01 -0.680716D-01  0.111182D+00
     16 -0.345880D-05  0.000000D+00 -0.762035D-05 -0.982048D-05  0.000000D+00
     17 -0.200732D-03  0.000000D+00 -0.442249D-03 -0.569934D-03  0.000000D+00
     18  0.000000D+00  0.000000D+00  0.000000D+00  0.000000D+00  0.000000D+00
     19  0.195970D-03  0.000000D+00  0.431756D-03  0.556412D-03  0.000000D+00
     20  0.810742D-04  0.000000D+00  0.178621D-03  0.230192D-03  0.000000D+00
     21  0.000000D+00  0.000000D+00  0.000000D+00  0.000000D+00  0.000000D+00
     22 -0.175808D-03  0.000000D+00 -0.387335D-03 -0.499166D-03  0.000000D+00
     23  0.119084D-03  0.000000D+00  0.262363D-03  0.338112D-03  0.000000D+00
     24  0.000000D+00  0.000000D+00  0.000000D+00  0.000000D+00  0.000000D+00
               16            17            18            19            20 
     16  0.319116D+00
     17 -0.427797D-02  0.550548D-01
     18 -0.746457D-01  0.223619D-02  0.810829D-01
     19 -0.428090D-02  0.290917D-01 -0.166216D-01  0.902373D-01
     20 -0.851290D-03  0.598337D-02 -0.331721D-02 -0.817247D-01  0.258104D+00
     21  0.185777D-02 -0.122244D-01  0.718923D-02  0.437536D-01 -0.974088D-01
     22 -0.535221D-02 -0.256312D-01 -0.170678D-01  0.127935D-01  0.104150D-01
     23  0.197903D-02  0.980568D-02  0.629134D-02 -0.157406D-01 -0.131620D-01
     24  0.300177D-02  0.137766D-01  0.960829D-02  0.129000D-01  0.111358D-01
               21            22            23            24 
     21  0.106825D+00
     22  0.103462D-01  0.129637D+00
     23 -0.134321D-01  0.111334D+00  0.220113D+00
     24  0.117131D-01  0.608356D-01  0.870381D-01  0.109426D+00
 Force constants in internal coordinates: 
                1             2             3             4             5 
      1  0.287452D+00
      2  0.000000D+00  0.345177D+00
      3  0.000000D+00  0.000000D+00  0.332054D+00
      4  0.000000D+00  0.000000D+00  0.000000D+00  0.348312D+00
      5  0.000000D+00  0.000000D+00  0.000000D+00  0.000000D+00  0.340666D+00
      6  0.000000D+00  0.000000D+00  0.000000D+00  0.000000D+00  0.000000D+00
      7  0.000000D+00  0.000000D+00  0.000000D+00  0.000000D+00  0.000000D+00
      8  0.000000D+00  0.000000D+00  0.000000D+00  0.000000D+00  0.000000D+00
      9  0.000000D+00  0.000000D+00  0.000000D+00  0.000000D+00  0.000000D+00
     10  0.000000D+00  0.000000D+00  0.000000D+00  0.000000D+00  0.000000D+00
     11  0.000000D+00  0.000000D+00  0.000000D+00  0.000000D+00  0.000000D+00
     12  0.000000D+00  0.000000D+00  0.000000D+00  0.000000D+00  0.000000D+00
     13  0.000000D+00  0.000000D+00  0.000000D+00  0.000000D+00  0.000000D+00
     14  0.000000D+00  0.000000D+00  0.000000D+00  0.000000D+00  0.000000D+00
     15  0.000000D+00  0.000000D+00  0.000000D+00  0.000000D+00  0.000000D+00
     16  0.000000D+00  0.000000D+00  0.000000D+00  0.000000D+00  0.000000D+00
     17  0.000000D+00  0.000000D+00  0.000000D+00  0.000000D+00  0.000000D+00
     18  0.000000D+00  0.000000D+00  0.000000D+00  0.000000D+00  0.000000D+00
                6             7             8             9            10 
      6  0.340139D+00
      7  0.000000D+00  0.343261D+00
      8  0.000000D+00  0.000000D+00  0.272021D+00
      9  0.000000D+00  0.000000D+00  0.249276D-01  0.228522D+00
     10  0.000000D+00  0.000000D+00  0.917889D-01  0.300168D-01  0.273187D+00
     11  0.000000D+00  0.000000D+00  0.000000D+00  0.000000D+00  0.000000D+00
     12  0.000000D+00  0.000000D+00  0.000000D+00  0.000000D+00  0.000000D+00
     13  0.000000D+00  0.000000D+00  0.000000D+00  0.000000D+00  0.000000D+00
     14  0.000000D+00  0.000000D+00 -0.480473D-01  0.496593D-02  0.505068D-01
     15  0.000000D+00  0.000000D+00  0.705162D-01 -0.654858D-01  0.188302D-01
     16  0.000000D+00  0.000000D+00  0.000000D+00  0.000000D+00  0.000000D+00
     17  0.000000D+00  0.000000D+00  0.000000D+00  0.000000D+00  0.000000D+00
     18  0.000000D+00  0.000000D+00  0.000000D+00  0.000000D+00  0.000000D+00
               11            12            13            14            15 
     11  0.255926D+00
     12  0.353388D-01  0.249242D+00
     13  0.470501D-01  0.606421D-01  0.261738D+00
     14  0.000000D+00  0.000000D+00  0.000000D+00  0.245351D+00
     15  0.000000D+00  0.000000D+00  0.000000D+00 -0.115215D+00  0.192632D+00
     16  0.280834D-04 -0.378093D-04  0.726491D-04  0.811314D-02  0.811314D-02
     17 -0.675864D-01  0.137199D-01  0.692587D-01  0.270438D-02  0.270438D-02
     18  0.716930D-01 -0.691008D-01 -0.665565D-02  0.270438D-02  0.270438D-02
               16            17            18 
     16  0.243586D-01
     17  0.805720D-02  0.202680D+00
     18  0.798465D-02 -0.854096D-01  0.193924D+00
 Leave Link  716 at Wed May 26 19:17:37 2021, MaxMem=   13107200 cpu:       0.0
 (Enter /programs/64bit/g09/g09-gfortran/bin/l103.exe)

 GradGradGradGradGradGradGradGradGradGradGradGradGradGradGradGradGradGrad
 Berny optimization.
 Search for a local minimum.
 Step number   1 out of a maximum of    2
 All quantities printed in internal units (Hartrees-Bohrs-Radians)
 Second derivative matrix not updated -- first step.
 The second derivative matrix:
                          d1        a1        t1        d2        a2
           d1           0.28745
           a1          -0.00000   0.27202
           t1          -0.00000  -0.04805   0.24535
           d2           0.00000  -0.00000  -0.00000   0.34518
           a2          -0.00000   0.02493   0.00497   0.00000   0.22852
           t2          -0.00000   0.07052  -0.11521   0.00000  -0.06549
           d3           0.00000   0.00000  -0.00000  -0.00000  -0.00000
           d4          -0.00000   0.00000   0.00000  -0.00000   0.00000
           a3          -0.00000   0.09179   0.05051   0.00000   0.03002
           d5           0.00000   0.00000   0.00000   0.00000  -0.00000
           a4           0.00000  -0.00000  -0.00000   0.00000   0.00000
           t3           0.00000  -0.00000   0.00811  -0.00000   0.00000
           d6           0.00000  -0.00000  -0.00000   0.00000  -0.00000
           a5           0.00000  -0.00000  -0.00000   0.00000   0.00000
           t4          -0.00000   0.00000   0.00270   0.00000   0.00000
           d7           0.00000  -0.00000   0.00000  -0.00000   0.00000
           a6           0.00000  -0.00000  -0.00000   0.00000  -0.00000
           t5           0.00000  -0.00000   0.00270  -0.00000  -0.00000
                          t2        d3        d4        a3        d5
           t2           0.19263
           d3           0.00000   0.33205
           d4          -0.00000  -0.00000   0.34831
           a3           0.01883  -0.00000  -0.00000   0.27319
           d5           0.00000   0.00000   0.00000  -0.00000   0.34067
           a4          -0.00000  -0.00000  -0.00000   0.00000   0.00000
           t3           0.00811  -0.00000  -0.00000  -0.00000   0.00000
           d6          -0.00000   0.00000   0.00000  -0.00000  -0.00000
           a5          -0.00000  -0.00000   0.00000   0.00000  -0.00000
           t4           0.00270  -0.00000  -0.00000  -0.00000   0.00000
           d7          -0.00000  -0.00000  -0.00000   0.00000  -0.00000
           a6           0.00000   0.00000  -0.00000   0.00000  -0.00000
           t5           0.00270  -0.00000   0.00000  -0.00000  -0.00000
                          a4        t3        d6        a5        t4
           a4           0.25593
           t3           0.00003   0.02436
           d6           0.00000  -0.00000   0.34014
           a5           0.03534  -0.00004  -0.00000   0.24924
           t4          -0.06759   0.00806  -0.00000   0.01372   0.20268
           d7          -0.00000  -0.00000   0.00000  -0.00000  -0.00000
           a6           0.04705   0.00007   0.00000   0.06064   0.06926
           t5           0.07169   0.00798   0.00000  -0.06910  -0.08541
                          d7        a6        t5
           d7           0.34326
           a6          -0.00000   0.26174
           t5           0.00000  -0.00666   0.19392
     Eigenvalues --- 1000.000001000.000001000.000001000.000001000.00000
     Eigenvalues --- 1000.000001000.000001000.000001000.000001000.00000
     Eigenvalues --- 1000.000001000.000001000.000001000.000001000.00000
     Eigenvalues --- 1000.000001000.000001000.00000
 Angle between quadratic step and forces=  90.00 degrees.
 Linear search not attempted -- first point.
 Variable       Old X    -DE/DX   Delta X   Delta X   Delta X     New X
                                 (Linear)    (Quad)   (Total)
    d1        2.90538   0.00108   0.00000   0.00000   0.00000   2.90538
    a1        1.94831   0.01479   0.00000   0.00000   0.00000   1.94831
    t1        1.87412   0.00555   0.00000   0.00000   0.00000   1.87412
    d2        2.06465   0.00043   0.00000   0.00000   0.00000   2.06465
    a2        1.82385   0.00290   0.00000   0.00000   0.00000   1.82385
    t2       -2.48168   0.03480   0.00000   0.00000   0.00000  -2.48168
    d3        2.08692   0.00049   0.00000   0.00000   0.00000   2.08692
    d4        2.05950   0.00018   0.00000   0.00000   0.00000   2.05950
    a3        1.98876   0.00624   0.00000   0.00000   0.00000   1.98876
    d5        2.07218   0.00052   0.00000   0.00000   0.00000   2.07218
    a4        1.85090   0.01475   0.00000   0.00000   0.00000   1.85090
    t3        3.12436   0.00515   0.00000   0.00000   0.00000   3.12436
    d6        2.07307  -0.00044   0.00000   0.00000   0.00000   2.07307
    a5        1.99985  -0.01537   0.00000   0.00000   0.00000   1.99985
    t4        1.98029   0.00887   0.00000   0.00000   0.00000   1.98029
    d7        2.06783  -0.00002   0.00000   0.00000   0.00000   2.06783
    a6        1.99704  -0.00165   0.00000   0.00000   0.00000   1.99704
    t5       -2.14893   0.01040   0.00000   0.00000   0.00000  -2.14893
         Item               Value     Threshold  Converged?
 Maximum Force            0.000000     0.000450     YES
 RMS     Force            0.000000     0.000300     YES
 Maximum Displacement     0.000000     0.001800     YES
 RMS     Displacement     0.000000     0.001200     YES
 Predicted change in Energy=-0.000000D+00
 Optimization completed.
    -- Stationary point found.
                       ----------------------------
                       !   Optimized Parameters   !
                       ! (Angstroms and Degrees)  !
 ----------------------                            ----------------------
 !      Name          Value   Derivative information (Atomic Units)     !
 ------------------------------------------------------------------------
 !       d1          1.5375   -DE/DX =    0.0011                        !
 !       a1        111.6299   -DE/DX =    0.0148                        !
 !       t1        107.3792   -DE/DX =    0.0056                        !
 !       d2          1.0926   -DE/DX =    0.0004                        !
 !       a2        104.4989   -DE/DX =    0.0029                        !
 !       t2       -142.1898   -DE/DX =    0.0348                        !
 !       d3          1.1044   -DE/DX =    0.0005                        !
 !       d4          1.0898   -DE/DX =    0.0002                        !
 !       a3        113.9475   -DE/DX =    0.0062                        !
 !       d5          1.0965   -DE/DX =    0.0005                        !
 !       a4        106.0487   -DE/DX =    0.0148                        !
 !       t3        179.0128   -DE/DX =    0.0051                        !
 !       d6          1.097    -DE/DX =   -0.0004                        !
 !       a5        114.5831   -DE/DX =   -0.0154                        !
 !       t4        113.4624   -DE/DX =    0.0089                        !
 !       d7          1.0942   -DE/DX =    0.0                           !
 !       a6        114.4219   -DE/DX =   -0.0016                        !
 !       t5       -123.1247   -DE/DX =    0.0104                        !
 ------------------------------------------------------------------------
 GradGradGradGradGradGradGradGradGradGradGradGradGradGradGradGradGradGrad

 Leave Link  103 at Wed May 26 19:17:37 2021, MaxMem=   13107200 cpu:       0.0
 (Enter /programs/64bit/g09/g09-gfortran/bin/l9999.exe)
 1\1\GINC-MOLMOD\Force\RB3LYP\6-31+G(d,p)\C2H6\OSPITE\26-May-2021\1\\#p
  b3lyp/6-31+g(d,p) force nosym\\c2h6 molecule\\0,1\C\C,1,d1\H,1,d2,2,a
 1\H,1,d3,2,a2,3,t1,0\H,1,d4,2,a3,3,t2,0\H,2,d5,1,a4,3,t3,0\H,2,d6,1,a5
 ,6,t4,0\H,2,d7,1,a6,6,t5,0\\d1=1.53745889\a1=111.62991769\t1=107.37919
 241\d2=1.09256638\a2=104.49888545\t2=-142.18978927\d3=1.10435235\d4=1.
 08983949\a3=113.94750115\d5=1.09654953\a4=106.04871867\t3=179.01283883
 \d6=1.09701901\a5=114.58311501\t4=113.46241732\d7=1.09424979\a6=114.42
 190759\t5=-123.12472595\\Version=EM64L-G09RevA.02\HF=-79.831877\RMSD=5
 .282e-09\RMSF=1.129e-02\Dipole=-0.0248467,-0.0630815,-0.0033642\Quadru
 pole=0.4252435,-0.0557805,-0.369463,-0.1038467,0.1210145,-0.108502\PG=
 C01 [X(C2H6)]\\@


 SUCCESS IS COUNTED SWEETEST
 BY THOSE WHO NE'ER SUCCEED.
 TO COMPREHEND NECTAR
 REQUIRES SOREST NEED.
           EMILY DICKINSON
 Job cpu time:  0 days  0 hours  0 minutes  7.1 seconds.
 File lengths (MBytes):  RWF=      5 Int=      0 D2E=      0 Chk=      1 Scr=      1
 Normal termination of Gaussian 09 at Wed May 26 19:17:37 2021.
