 Entering Gaussian System, Link 0=g09
 Input=c2h6_033.com
 Output=c2h6_033.log
 Initial command:
 /programs/64bit/g09/g09-gfortran/bin/l1.exe /data/scratch/Gau-6685.inp -scrdir=/data/scratch/
 Entering Link 1 = /programs/64bit/g09/g09-gfortran/bin/l1.exe PID=      6686.
  
 Copyright (c) 1988,1990,1992,1993,1995,1998,2003,2009, Gaussian, Inc.
                  All Rights Reserved.
  
 This is part of the Gaussian(R) 09 program.  It is based on
 the Gaussian(R) 03 system (copyright 2003, Gaussian, Inc.),
 the Gaussian(R) 98 system (copyright 1998, Gaussian, Inc.),
 the Gaussian(R) 94 system (copyright 1995, Gaussian, Inc.),
 the Gaussian 92(TM) system (copyright 1992, Gaussian, Inc.),
 the Gaussian 90(TM) system (copyright 1990, Gaussian, Inc.),
 the Gaussian 88(TM) system (copyright 1988, Gaussian, Inc.),
 the Gaussian 86(TM) system (copyright 1986, Carnegie Mellon
 University), and the Gaussian 82(TM) system (copyright 1983,
 Carnegie Mellon University). Gaussian is a federally registered
 trademark of Gaussian, Inc.
  
 This software contains proprietary and confidential information,
 including trade secrets, belonging to Gaussian, Inc.
  
 This software is provided under written license and may be
 used, copied, transmitted, or stored only in accord with that
 written license.
  
 The following legend is applicable only to US Government
 contracts under FAR:
  
                    RESTRICTED RIGHTS LEGEND
  
 Use, reproduction and disclosure by the US Government is
 subject to restrictions as set forth in subparagraphs (a)
 and (c) of the Commercial Computer Software - Restricted
 Rights clause in FAR 52.227-19.
  
 Gaussian, Inc.
 340 Quinnipiac St., Bldg. 40, Wallingford CT 06492
  
  
 ---------------------------------------------------------------
 Warning -- This program may not be used in any manner that
 competes with the business of Gaussian, Inc. or will provide
 assistance to any competitor of Gaussian, Inc.  The licensee
 of this program is prohibited from giving any competitor of
 Gaussian, Inc. access to this program.  By using this program,
 the user acknowledges that Gaussian, Inc. is engaged in the
 business of creating and licensing software in the field of
 computational chemistry and represents and warrants to the
 licensee that it is not a competitor of Gaussian, Inc. and that
 it will not use this program in any manner prohibited above.
 ---------------------------------------------------------------
  

 Cite this work as:
 Gaussian 09, Revision A.02,
 M. J. Frisch, G. W. Trucks, H. B. Schlegel, G. E. Scuseria, 
 M. A. Robb, J. R. Cheeseman, G. Scalmani, V. Barone, B. Mennucci, 
 G. A. Petersson, H. Nakatsuji, M. Caricato, X. Li, H. P. Hratchian, 
 A. F. Izmaylov, J. Bloino, G. Zheng, J. L. Sonnenberg, M. Hada, 
 M. Ehara, K. Toyota, R. Fukuda, J. Hasegawa, M. Ishida, T. Nakajima, 
 Y. Honda, O. Kitao, H. Nakai, T. Vreven, J. A. Montgomery, Jr., 
 J. E. Peralta, F. Ogliaro, M. Bearpark, J. J. Heyd, E. Brothers, 
 K. N. Kudin, V. N. Staroverov, R. Kobayashi, J. Normand, 
 K. Raghavachari, A. Rendell, J. C. Burant, S. S. Iyengar, J. Tomasi, 
 M. Cossi, N. Rega, J. M. Millam, M. Klene, J. E. Knox, J. B. Cross, 
 V. Bakken, C. Adamo, J. Jaramillo, R. Gomperts, R. E. Stratmann, 
 O. Yazyev, A. J. Austin, R. Cammi, C. Pomelli, J. W. Ochterski, 
 R. L. Martin, K. Morokuma, V. G. Zakrzewski, G. A. Voth, 
 P. Salvador, J. J. Dannenberg, S. Dapprich, A. D. Daniels, 
 O. Farkas, J. B. Foresman, J. V. Ortiz, J. Cioslowski, 
 and D. J. Fox, Gaussian, Inc., Wallingford CT, 2009.
 
 ******************************************
 Gaussian 09:  EM64L-G09RevA.02 11-Jun-2009
                26-May-2021 
 ******************************************
 %chk=c2h6_033.chk
 %mem=100MB
 --------------------------------
 #p b3lyp/6-31+g(d,p) force nosym
 --------------------------------
 1/10=7,30=1,38=1/1,3;
 2/12=2,15=1,17=6,18=5,40=1/2;
 3/5=1,6=6,7=111,11=2,16=1,25=1,30=1,71=1,74=-5/1,2,3;
 4//1;
 5/5=2,38=5/2;
 6/7=2,8=2,9=2,10=2,28=1/1;
 7/29=1,30=1/1,2,3,16;
 1/10=7,30=1/3;
 99//99;
 Leave Link    1 at Wed May 26 19:13:15 2021, MaxMem=   13107200 cpu:       0.0
 (Enter /programs/64bit/g09/g09-gfortran/bin/l101.exe)
 -------------
 c2h6 molecule
 -------------
 Symbolic Z-matrix:
 Charge =  0 Multiplicity = 1
 C1
 C2                   1    d1
 H3                   1    d2       2    a1
 H4                   1    d3       2    a2       3    t1       0
 H5                   1    d4       2    a3       3    t2       0
 H6                   2    d5       1    a4       3    t3       0
 H7                   2    d6       1    a5       6    t4       0
 H8                   2    d7       1    a6       6    t5       0
       Variables:
       Constants:
  d1                    1.69629                  
  a1                  150.28358                  
  t1                   98.99516                  
  d2                    1.08961                  
  a2                   88.54175                  
  t2                 -157.80008                  
  d3                    1.08554                  
  d4                    1.08563                  
  a3                   86.5027                   
  d5                    1.08746                  
  a4                   90.65496                  
  t3                  179.8286                   
  d6                    1.09399                  
  a5                   90.87567                  
  t4                  122.25706                  
  d7                    1.10357                  
  a6                  156.11528                  
  t5                 -120.00027                  
 
 NAtoms=      8 NQM=      8 NQMF=      0 NMic=      0 NMicF=      0 NTot=      8.
                    Isotopes and Nuclear Properties:
 (Nuclear quadrupole moments (NQMom) in fm**2, nuclear magnetic moments (NMagM)
  in nuclear magnetons)

  Atom         1           2           3           4           5           6           7           8
 IAtWgt=          12          12           1           1           1           1           1           1
 AtmWgt=  12.0000000  12.0000000   1.0078250   1.0078250   1.0078250   1.0078250   1.0078250   1.0078250
 NucSpn=           0           0           1           1           1           1           1           1
 AtZEff=   0.0000000   0.0000000   0.0000000   0.0000000   0.0000000   0.0000000   0.0000000   0.0000000
 NQMom=    0.0000000   0.0000000   0.0000000   0.0000000   0.0000000   0.0000000   0.0000000   0.0000000
 NMagM=    0.0000000   0.0000000   2.7928460   2.7928460   2.7928460   2.7928460   2.7928460   2.7928460
 Leave Link  101 at Wed May 26 19:13:15 2021, MaxMem=   13107200 cpu:       0.0
 (Enter /programs/64bit/g09/g09-gfortran/bin/l103.exe)

 GradGradGradGradGradGradGradGradGradGradGradGradGradGradGradGradGradGrad
 Berny optimization.
 Initialization pass.
                       ----------------------------
                       !    Initial Parameters    !
                       ! (Angstroms and Degrees)  !
 ----------------------                            ----------------------
 !      Name          Value   Derivative information (Atomic Units)     !
 ------------------------------------------------------------------------
 !       d1          1.6963   Frozen                                    !
 !       a1        150.2836   Frozen                                    !
 !       t1         98.9952   Frozen                                    !
 !       d2          1.0896   Frozen                                    !
 !       a2         88.5418   Frozen                                    !
 !       t2       -157.8001   Frozen                                    !
 !       d3          1.0855   Frozen                                    !
 !       d4          1.0856   Frozen                                    !
 !       a3         86.5027   Frozen                                    !
 !       d5          1.0875   Frozen                                    !
 !       a4         90.655    Frozen                                    !
 !       t3        179.8286   Frozen                                    !
 !       d6          1.094    Frozen                                    !
 !       a5         90.8757   Frozen                                    !
 !       t4        122.2571   Frozen                                    !
 !       d7          1.1036   Frozen                                    !
 !       a6        156.1153   Frozen                                    !
 !       t5       -120.0003   Frozen                                    !
 ------------------------------------------------------------------------
 Trust Radius=3.00D-01 FncErr=1.00D-07 GrdErr=1.00D-07
 Number of steps in this run=   2 maximum allowed number of steps=   2.
 GradGradGradGradGradGradGradGradGradGradGradGradGradGradGradGradGradGrad

 Leave Link  103 at Wed May 26 19:13:15 2021, MaxMem=   13107200 cpu:       0.0
 (Enter /programs/64bit/g09/g09-gfortran/bin/l202.exe)
                          Input orientation:                          
 ---------------------------------------------------------------------
 Center     Atomic      Atomic             Coordinates (Angstroms)
 Number     Number       Type             X           Y           Z
 ---------------------------------------------------------------------
      1          6           0        0.000000    0.000000    0.000000
      2          6           0        0.000000    0.000000    1.696292
      3          1           0        0.540126    0.000000   -0.946312
      4          1           0       -0.169671   -1.071847    0.027625
      5          1           0       -1.003285    0.409431    0.066225
      6          1           0       -1.087380    0.003253    1.708723
      7          1           0        0.581046   -0.926783    1.713012
      8          1           0        0.224575    0.386298    2.705356
 ---------------------------------------------------------------------
                    Distance matrix (angstroms):
                    1          2          3          4          5
     1  C    0.000000
     2  C    1.696292   0.000000
     3  H    1.089606   2.697238   0.000000
     4  H    1.085544   1.990501   1.612830   0.000000
     5  H    1.085634   1.957379   1.890763   1.700173   0.000000
     6  H    2.025374   1.087456   3.114160   2.196387   1.694063
     7  H    2.032474   1.093993   2.816487   1.850715   2.647164
     8  H    2.742009   1.103572   3.685577   3.074388   2.910874
                    6          7          8
     6  H    0.000000
     7  H    1.910139   0.000000
     8  H    1.691516   1.684043   0.000000
 Symmetry turned off by external request.
 Stoichiometry    C2H6
 Framework group  C1[X(C2H6)]
 Deg. of freedom    18
 Full point group                 C1      NOp   1
 Rotational constants (GHZ):     97.6359748     17.6759032     16.7542970
 Leave Link  202 at Wed May 26 19:13:15 2021, MaxMem=   13107200 cpu:       0.0
 (Enter /programs/64bit/g09/g09-gfortran/bin/l301.exe)
 Standard basis: 6-31+G(d,p) (6D, 7F)
 Ernie: Thresh=  0.10000D-02 Tol=  0.10000D-05 Strict=F.
 Integral buffers will be    131072 words long.
 Raffenetti 2 integral format.
 Two-electron integral symmetry is turned off.
    68 basis functions,   106 primitive gaussians,    68 cartesian basis functions
     9 alpha electrons        9 beta electrons
       nuclear repulsion energy        41.0929830061 Hartrees.
 IExCor=  402 DFT=T Ex+Corr=B3LYP ExCW=0 ScaHFX=  0.200000
 ScaDFX=  0.800000  0.720000  1.000000  0.810000 ScalE2=  1.000000  1.000000
 IRadAn=      0 IRanWt=     -1 IRanGd=            0 ICorTp=0
 NAtoms=    8 NActive=    8 NUniq=    8 SFac= 7.50D-01 NAtFMM=   80 NAOKFM=F Big=F
 Leave Link  301 at Wed May 26 19:13:15 2021, MaxMem=   13107200 cpu:       0.0
 (Enter /programs/64bit/g09/g09-gfortran/bin/l302.exe)
 NPDir=0 NMtPBC=     1 NCelOv=     1 NCel=       1 NClECP=     1 NCelD=      1
         NCelK=      1 NCelE2=     1 NClLst=     1 CellRange=     0.0.
 One-electron integrals computed using PRISM.
 NBasis=    68 RedAO= T  NBF=    68
 NBsUse=    68 1.00D-06 NBFU=    68
 Precomputing XC quadrature grid using
 IXCGrd= 2 IRadAn=           0 IRanWt=          -1 IRanGd=           0 AccXCQ= 1.00D-10.
 NRdTot=     510 NPtTot=       65100 NUsed=       68787 NTot=       68819
 NSgBfM=    68    68    68    68    68 NAtAll=     8     8.
 Leave Link  302 at Wed May 26 19:13:15 2021, MaxMem=   13107200 cpu:       0.1
 (Enter /programs/64bit/g09/g09-gfortran/bin/l303.exe)
 DipDrv:  MaxL=1.
 Leave Link  303 at Wed May 26 19:13:15 2021, MaxMem=   13107200 cpu:       0.0
 (Enter /programs/64bit/g09/g09-gfortran/bin/l401.exe)
 Harris functional with IExCor=  402 diagonalized for initial guess.
 ExpMin= 4.38D-02 ExpMax= 3.05D+03 ExpMxC= 4.57D+02 IAcc=2 IRadAn=         0 AccDes= 0.00D+00
 HarFok:  IExCor=  402 AccDes= 0.00D+00 IRadAn=         0 IDoV= 1
 ScaDFX=  1.000000  1.000000  1.000000  1.000000
 FoFCou: FMM=F IPFlag=           0 FMFlag=      100000 FMFlg1=           0
         NFxFlg=           0 DoJE=T BraDBF=F KetDBF=T FulRan=T
         Omega=  0.000000  0.000000  1.000000  0.000000  0.000000 ICntrl=     500 IOpCl=  0
         NMat0=    1 NMatS0=    1 NMatT0=    0 NMatD0=    1 NMtDS0=    0 NMtDT0=    0
         I1Cent=           4 NGrid=           0.
 Symmetry not used in FoFCou.
 Harris En= -79.7685203758147    
 Leave Link  401 at Wed May 26 19:13:16 2021, MaxMem=   13107200 cpu:       0.7
 (Enter /programs/64bit/g09/g09-gfortran/bin/l502.exe)
 Closed shell SCF:
 Requested convergence on RMS density matrix=1.00D-08 within 128 cycles.
 Requested convergence on MAX density matrix=1.00D-06.
 Requested convergence on             energy=1.00D-06.
 No special actions if energy rises.
 Using DIIS extrapolation, IDIIS=  1040.
 Two-electron integral symmetry not used.
        68702 words used for storage of precomputed grid.
 Keep R1 ints in memory in canonical form, NReq=3743087.
 IEnd=      101552 IEndB=      101552 NGot=    13107200 MDV=    10273922
 LenX=    10273922 LenY=    10268857
 Symmetry not used in FoFDir.
 MinBra= 0 MaxBra= 2 Meth= 1.
 IRaf=       0 NMat=   1 IRICut=       1 DoRegI=T DoRafI=F ISym2E= 0 JSym2E=0.

 Cycle   1  Pass 1  IDiag  1:
 E= -79.6102455602663    
 DIIS: error= 3.59D-02 at cycle   1 NSaved=   1.
 NSaved= 1 IEnMin= 1 EnMin= -79.6102455602663     IErMin= 1 ErrMin= 3.59D-02
 ErrMax= 3.59D-02 EMaxC= 1.00D-01 BMatC= 9.59D-02 BMatP= 9.59D-02
 IDIUse=3 WtCom= 6.41D-01 WtEn= 3.59D-01
 Coeff-Com:  0.100D+01
 Coeff-En:   0.100D+01
 Coeff:      0.100D+01
 Gap=     0.324 Goal=   None    Shift=    0.000
 GapD=    0.324 DampG=1.000 DampE=0.500 DampFc=0.5000 IDamp=-1.
 Damping current iteration by 5.00D-01
 RMSDP=1.14D-02 MaxDP=1.31D-01              OVMax= 2.09D-01

 Cycle   2  Pass 1  IDiag  1:
 E= -79.6562142378153     Delta-E=       -0.045968677549 Rises=F Damp=T
 DIIS: error= 9.37D-03 at cycle   2 NSaved=   2.
 NSaved= 2 IEnMin= 2 EnMin= -79.6562142378153     IErMin= 2 ErrMin= 9.37D-03
 ErrMax= 9.37D-03 EMaxC= 1.00D-01 BMatC= 4.42D-03 BMatP= 9.59D-02
 IDIUse=3 WtCom= 9.06D-01 WtEn= 9.37D-02
 Coeff-Com:  0.106D+00 0.894D+00
 Coeff-En:   0.179D+00 0.821D+00
 Coeff:      0.113D+00 0.887D+00
 Gap=     0.304 Goal=   None    Shift=    0.000
 RMSDP=2.15D-03 MaxDP=3.23D-02 DE=-4.60D-02 OVMax= 1.18D-01

 Cycle   3  Pass 1  IDiag  1:
 E= -79.7203288335160     Delta-E=       -0.064114595701 Rises=F Damp=F
 DIIS: error= 2.02D-03 at cycle   3 NSaved=   3.
 NSaved= 3 IEnMin= 3 EnMin= -79.7203288335160     IErMin= 3 ErrMin= 2.02D-03
 ErrMax= 2.02D-03 EMaxC= 1.00D-01 BMatC= 3.23D-04 BMatP= 4.42D-03
 IDIUse=3 WtCom= 9.80D-01 WtEn= 2.02D-02
 Coeff-Com:  0.674D-02 0.181D+00 0.812D+00
 Coeff-En:   0.000D+00 0.000D+00 0.100D+01
 Coeff:      0.660D-02 0.177D+00 0.816D+00
 Gap=     0.296 Goal=   None    Shift=    0.000
 RMSDP=4.62D-04 MaxDP=4.75D-03 DE=-6.41D-02 OVMax= 6.35D-03

 Cycle   4  Pass 1  IDiag  1:
 E= -79.7206429310179     Delta-E=       -0.000314097502 Rises=F Damp=F
 DIIS: error= 4.54D-04 at cycle   4 NSaved=   4.
 NSaved= 4 IEnMin= 4 EnMin= -79.7206429310179     IErMin= 4 ErrMin= 4.54D-04
 ErrMax= 4.54D-04 EMaxC= 1.00D-01 BMatC= 1.53D-05 BMatP= 3.23D-04
 IDIUse=3 WtCom= 9.95D-01 WtEn= 4.54D-03
 Coeff-Com: -0.564D-03-0.401D-04 0.174D+00 0.826D+00
 Coeff-En:   0.000D+00 0.000D+00 0.000D+00 0.100D+01
 Coeff:     -0.562D-03-0.400D-04 0.173D+00 0.827D+00
 Gap=     0.296 Goal=   None    Shift=    0.000
 RMSDP=1.15D-04 MaxDP=1.40D-03 DE=-3.14D-04 OVMax= 1.65D-03

 Cycle   5  Pass 1  IDiag  1:
 E= -79.7206574179192     Delta-E=       -0.000014486901 Rises=F Damp=F
 DIIS: error= 1.21D-04 at cycle   5 NSaved=   5.
 NSaved= 5 IEnMin= 5 EnMin= -79.7206574179192     IErMin= 5 ErrMin= 1.21D-04
 ErrMax= 1.21D-04 EMaxC= 1.00D-01 BMatC= 1.50D-06 BMatP= 1.53D-05
 IDIUse=3 WtCom= 9.99D-01 WtEn= 1.21D-03
 Coeff-Com: -0.180D-03-0.152D-02 0.858D-01 0.441D+00 0.475D+00
 Coeff-En:   0.000D+00 0.000D+00 0.000D+00 0.000D+00 0.100D+01
 Coeff:     -0.180D-03-0.152D-02 0.857D-01 0.440D+00 0.476D+00
 Gap=     0.296 Goal=   None    Shift=    0.000
 RMSDP=1.98D-05 MaxDP=2.78D-04 DE=-1.45D-05 OVMax= 5.43D-04

 Cycle   6  Pass 1  IDiag  1:
 E= -79.7206589672538     Delta-E=       -0.000001549335 Rises=F Damp=F
 DIIS: error= 2.67D-05 at cycle   6 NSaved=   6.
 NSaved= 6 IEnMin= 6 EnMin= -79.7206589672538     IErMin= 6 ErrMin= 2.67D-05
 ErrMax= 2.67D-05 EMaxC= 1.00D-01 BMatC= 7.26D-08 BMatP= 1.50D-06
 IDIUse=1 WtCom= 1.00D+00 WtEn= 0.00D+00
 Coeff-Com:  0.142D-03-0.743D-03 0.101D-01 0.630D-01 0.197D+00 0.730D+00
 Coeff:      0.142D-03-0.743D-03 0.101D-01 0.630D-01 0.197D+00 0.730D+00
 Gap=     0.296 Goal=   None    Shift=    0.000
 RMSDP=4.02D-06 MaxDP=5.83D-05 DE=-1.55D-06 OVMax= 8.88D-05

 Cycle   7  Pass 1  IDiag  1:
 E= -79.7206590421719     Delta-E=       -0.000000074918 Rises=F Damp=F
 DIIS: error= 3.14D-06 at cycle   7 NSaved=   7.
 NSaved= 7 IEnMin= 7 EnMin= -79.7206590421719     IErMin= 7 ErrMin= 3.14D-06
 ErrMax= 3.14D-06 EMaxC= 1.00D-01 BMatC= 1.28D-09 BMatP= 7.26D-08
 IDIUse=1 WtCom= 1.00D+00 WtEn= 0.00D+00
 Coeff-Com:  0.715D-04-0.172D-03-0.117D-02-0.260D-02 0.347D-01 0.192D+00
 Coeff-Com:  0.777D+00
 Coeff:      0.715D-04-0.172D-03-0.117D-02-0.260D-02 0.347D-01 0.192D+00
 Coeff:      0.777D+00
 Gap=     0.296 Goal=   None    Shift=    0.000
 RMSDP=1.03D-06 MaxDP=1.09D-05 DE=-7.49D-08 OVMax= 1.41D-05

 Cycle   8  Pass 1  IDiag  1:
 E= -79.7206590436810     Delta-E=       -0.000000001509 Rises=F Damp=F
 DIIS: error= 6.21D-07 at cycle   8 NSaved=   8.
 NSaved= 8 IEnMin= 8 EnMin= -79.7206590436810     IErMin= 8 ErrMin= 6.21D-07
 ErrMax= 6.21D-07 EMaxC= 1.00D-01 BMatC= 2.54D-11 BMatP= 1.28D-09
 IDIUse=1 WtCom= 1.00D+00 WtEn= 0.00D+00
 Coeff-Com:  0.119D-04-0.167D-04-0.496D-03-0.205D-02 0.219D-02 0.190D-01
 Coeff-Com:  0.167D+00 0.815D+00
 Coeff:      0.119D-04-0.167D-04-0.496D-03-0.205D-02 0.219D-02 0.190D-01
 Coeff:      0.167D+00 0.815D+00
 Gap=     0.296 Goal=   None    Shift=    0.000
 RMSDP=1.55D-07 MaxDP=1.83D-06 DE=-1.51D-09 OVMax= 2.51D-06

 Cycle   9  Pass 1  IDiag  1:
 E= -79.7206590437131     Delta-E=       -0.000000000032 Rises=F Damp=F
 DIIS: error= 8.82D-08 at cycle   9 NSaved=   9.
 NSaved= 9 IEnMin= 9 EnMin= -79.7206590437131     IErMin= 9 ErrMin= 8.82D-08
 ErrMax= 8.82D-08 EMaxC= 1.00D-01 BMatC= 6.71D-13 BMatP= 2.54D-11
 IDIUse=1 WtCom= 1.00D+00 WtEn= 0.00D+00
 Coeff-Com: -0.533D-06 0.203D-05-0.437D-04-0.199D-03-0.555D-03-0.247D-02
 Coeff-Com:  0.673D-02 0.149D+00 0.847D+00
 Coeff:     -0.533D-06 0.203D-05-0.437D-04-0.199D-03-0.555D-03-0.247D-02
 Coeff:      0.673D-02 0.149D+00 0.847D+00
 Gap=     0.296 Goal=   None    Shift=    0.000
 RMSDP=2.23D-08 MaxDP=2.52D-07 DE=-3.21D-11 OVMax= 4.34D-07

 Cycle  10  Pass 1  IDiag  1:
 E= -79.7206590437142     Delta-E=       -0.000000000001 Rises=F Damp=F
 DIIS: error= 1.40D-08 at cycle  10 NSaved=  10.
 NSaved=10 IEnMin=10 EnMin= -79.7206590437142     IErMin=10 ErrMin= 1.40D-08
 ErrMax= 1.40D-08 EMaxC= 1.00D-01 BMatC= 1.66D-14 BMatP= 6.71D-13
 IDIUse=1 WtCom= 1.00D+00 WtEn= 0.00D+00
 Coeff-Com: -0.458D-06 0.708D-06-0.128D-05-0.616D-05-0.187D-03-0.101D-02
 Coeff-Com: -0.226D-02 0.125D-01 0.169D+00 0.822D+00
 Coeff:     -0.458D-06 0.708D-06-0.128D-05-0.616D-05-0.187D-03-0.101D-02
 Coeff:     -0.226D-02 0.125D-01 0.169D+00 0.822D+00
 Gap=     0.296 Goal=   None    Shift=    0.000
 RMSDP=3.61D-09 MaxDP=3.48D-08 DE=-1.09D-12 OVMax= 5.21D-08

 SCF Done:  E(RB3LYP) =  -79.7206590437     A.U. after   10 cycles
             Convg  =    0.3606D-08             -V/T =  2.0102
 KE= 7.891923902616D+01 PE=-2.656106620004D+02 EE= 6.587778092449D+01
 Leave Link  502 at Wed May 26 19:13:22 2021, MaxMem=   13107200 cpu:       6.6
 (Enter /programs/64bit/g09/g09-gfortran/bin/l601.exe)
 Copying SCF densities to generalized density rwf, IOpCl= 0 IROHF=0.

 **********************************************************************

            Population analysis using the SCF density.

 **********************************************************************

 Alpha  occ. eigenvalues --  -10.19769 -10.19573  -0.75780  -0.62976  -0.47403
 Alpha  occ. eigenvalues --   -0.43433  -0.36709  -0.32823  -0.29000
 Alpha virt. eigenvalues --    0.00568   0.00944   0.04954   0.05784   0.06671
 Alpha virt. eigenvalues --    0.07568   0.08708   0.10465   0.14732   0.15631
 Alpha virt. eigenvalues --    0.19803   0.21523   0.25615   0.29776   0.33279
 Alpha virt. eigenvalues --    0.64461   0.64786   0.65800   0.69110   0.73768
 Alpha virt. eigenvalues --    0.75726   0.88101   0.89000   0.94982   0.97424
 Alpha virt. eigenvalues --    1.03453   1.04722   1.06220   1.21445   1.29874
 Alpha virt. eigenvalues --    1.43871   1.54112   1.70629   1.80856   1.93566
 Alpha virt. eigenvalues --    1.97181   2.03714   2.11416   2.14919   2.18207
 Alpha virt. eigenvalues --    2.22801   2.26646   2.36339   2.40231   2.58612
 Alpha virt. eigenvalues --    2.66518   2.66621   2.71769   2.74273   2.87886
 Alpha virt. eigenvalues --    2.92281   3.22422   3.27423   3.36433   3.41922
 Alpha virt. eigenvalues --    3.51550   3.67063   4.26835   4.70511
          Condensed to atoms (all electrons):
              1          2          3          4          5          6
     1  C    5.251391   0.128773   0.355245   0.441210   0.431611  -0.093152
     2  C    0.128773   5.231025   0.017399  -0.092640  -0.084066   0.445577
     3  H    0.355245   0.017399   0.535977  -0.050602  -0.017279   0.003954
     4  H    0.441210  -0.092640  -0.050602   0.621534  -0.038256  -0.006300
     5  H    0.431611  -0.084066  -0.017279  -0.038256   0.567053  -0.017788
     6  H   -0.093152   0.445577   0.003954  -0.006300  -0.017788   0.595867
     7  H   -0.099385   0.445188   0.002403  -0.026630   0.006395  -0.015315
     8  H    0.038238   0.337706  -0.000878   0.004267   0.000637  -0.045957
              7          8
     1  C   -0.099385   0.038238
     2  C    0.445188   0.337706
     3  H    0.002403  -0.000878
     4  H   -0.026630   0.004267
     5  H    0.006395   0.000637
     6  H   -0.015315  -0.045957
     7  H    0.585316  -0.041502
     8  H   -0.041502   0.554130
 Mulliken atomic charges:
              1
     1  C   -0.453932
     2  C   -0.428962
     3  H    0.153780
     4  H    0.147416
     5  H    0.151692
     6  H    0.133115
     7  H    0.143531
     8  H    0.153359
 Sum of Mulliken atomic charges =   0.00000
 Mulliken charges with hydrogens summed into heavy atoms:
              1
     1  C   -0.001044
     2  C    0.001044
 Sum of Mulliken charges with hydrogens summed into heavy atoms =   0.00000
 Electronic spatial extent (au):  <R**2>=            165.1722
 Charge=             -0.0000 electrons
 Dipole moment (field-independent basis, Debye):
    X=             -0.2583    Y=             -0.5354    Z=             -0.0218  Tot=              0.5948
 Quadrupole moment (field-independent basis, Debye-Ang):
   XX=            -15.4355   YY=            -16.3600   ZZ=            -14.7596
   XY=             -1.0283   XZ=             -0.7238   YZ=              0.2018
 Traceless Quadrupole moment (field-independent basis, Debye-Ang):
   XX=              0.0829   YY=             -0.8416   ZZ=              0.7588
   XY=             -1.0283   XZ=             -0.7238   YZ=              0.2018
 Octapole moment (field-independent basis, Debye-Ang**2):
  XXX=              1.0750  YYY=              1.7826  ZZZ=            -37.8743  XYY=              0.8990
  XXY=              0.9604  XXZ=            -13.0432  XZZ=              1.1755  YZZ=              1.3872
  YYZ=            -14.5936  XYZ=             -1.1103
 Hexadecapole moment (field-independent basis, Debye-Ang**3):
 XXXX=            -30.9384 YYYY=            -30.5810 ZZZZ=           -166.5792 XXXY=             -0.1334
 XXXZ=              0.2926 YYYX=              0.2137 YYYZ=              1.1026 ZZZX=              1.8590
 ZZZY=              4.5705 XXYY=            -10.4826 XXZZ=            -35.4341 YYZZ=            -38.3729
 XXYZ=              0.5269 YYXZ=              0.8592 ZZXY=             -1.4370
 N-N= 4.109298300607D+01 E-N=-2.656106616324D+02  KE= 7.891923902616D+01
 No NMR shielding tensors so no spin-rotation constants.
 Leave Link  601 at Wed May 26 19:13:23 2021, MaxMem=   13107200 cpu:       0.1
 (Enter /programs/64bit/g09/g09-gfortran/bin/l701.exe)
 Compute integral first derivatives.
 ... and contract with generalized density number  0.
 Leave Link  701 at Wed May 26 19:13:23 2021, MaxMem=   13107200 cpu:       0.1
 (Enter /programs/64bit/g09/g09-gfortran/bin/l702.exe)
 L702 exits ... SP integral derivatives will be done elsewhere.
 Leave Link  702 at Wed May 26 19:13:23 2021, MaxMem=   13107200 cpu:       0.0
 (Enter /programs/64bit/g09/g09-gfortran/bin/l703.exe)
 Compute integral first derivatives, UseDBF=F ICtDFT=           0.
 Integral derivatives from FoFDir, PRISM(SPDF).
 Calling FoFJK, ICntrl=      2127 FMM=F ISym2X=0 I1Cent= 0 IOpClX= 0 NMat=1 NMatS=1 NMatT=0.
 FoFCou: FMM=F IPFlag=           0 FMFlag=      100000 FMFlg1=         800
         NFxFlg=           0 DoJE=F BraDBF=F KetDBF=F FulRan=T
         Omega=  0.000000  0.000000  1.000000  0.000000  0.000000 ICntrl=    2127 IOpCl=  0
         NMat0=    1 NMatS0=    1 NMatT0=    0 NMatD0=    1 NMtDS0=    0 NMtDT0=    0
         I1Cent=           0 NGrid=           0.
 Symmetry not used in FoFCou.
 Leave Link  703 at Wed May 26 19:13:24 2021, MaxMem=   13107200 cpu:       1.5
 (Enter /programs/64bit/g09/g09-gfortran/bin/l716.exe)
 Dipole        =-1.01603459D-01-2.10640346D-01-8.58635355D-03
 -------------------------------------------------------------------
 Center     Atomic                   Forces (Hartrees/Bohr)
 Number     Number              X              Y              Z
 -------------------------------------------------------------------
      1        6          -0.036535246   -0.011891736    0.032207136
      2        6           0.023354709   -0.027071886   -0.007797868
      3        1           0.021055624    0.034626768    0.009115626
      4        1          -0.009501940   -0.006275793   -0.007021601
      5        1           0.000609021    0.009344054   -0.043982731
      6        1          -0.000113138   -0.023986851    0.014854805
      7        1          -0.020507819   -0.012165711    0.022354117
      8        1           0.021638789    0.037421155   -0.019729485
 -------------------------------------------------------------------
 Cartesian Forces:  Max     0.043982731 RMS     0.022268644
 -----------------------------------------------------------------------------------------------
                       Internal Coordinate Forces (Hartree/Bohr or radian)
  Cent   Atom   N1       Length/X         N2         Alpha/Y        N3         Beta/Z          J
 -----------------------------------------------------------------------------------------------
      1  C 
      2  C        1   0.009682(     1)
      3  H        1   0.002521(     2)      2  -0.046957(     8)
      4  H        1   0.007503(     3)      2   0.014800(     9)      3   0.017234(    14)     0
      5  H        1   0.000278(     4)      2   0.090436(    10)      3   0.018187(    15)     0
      6  H        2   0.000211(     5)      1   0.030524(    11)      3   0.000100(    16)     0
      7  H        2  -0.000244(     6)      1   0.046227(    12)      6  -0.049275(    17)     0
      8  H        2  -0.000537(     7)      1  -0.099087(    13)      6   0.000085(    18)     0
 -----------------------------------------------------------------------------------------------
 Internal  Forces:  Max     0.099086978 RMS     0.038515666
 Force constants in Cartesian coordinates: 
                1             2             3             4             5 
      1  0.646116D+00
      2 -0.559837D-01  0.600401D+00
      3 -0.138397D+00 -0.130314D-01  0.643774D+00
      4 -0.100001D+00 -0.399554D-02  0.126410D-01  0.679991D+00
      5 -0.634021D-02 -0.927381D-01  0.143579D-01 -0.902180D-01  0.555967D+00
      6 -0.532126D-02 -0.973656D-02 -0.181852D+00  0.489310D-01  0.836416D-01
      7 -0.164349D+00  0.117396D-01  0.856706D-01  0.230858D-01  0.634109D-03
      8  0.243083D-01 -0.864309D-01 -0.122958D-01 -0.199725D-02  0.111664D-01
      9  0.105154D+00  0.670062D-02 -0.299683D+00  0.131767D-01  0.361930D-03
     10 -0.755851D-01 -0.604636D-01  0.200654D-01  0.614787D-03 -0.252217D-03
     11 -0.434682D-01 -0.343796D+00  0.412599D-02 -0.185665D-03 -0.583890D-03
     12  0.193103D-01 -0.156443D-02 -0.700024D-01 -0.342775D-02 -0.242036D-01
     13 -0.322564D+00  0.101778D+00  0.200199D-01 -0.102241D-03  0.235021D-02
     14  0.728692D-01 -0.105098D+00  0.684324D-02  0.337102D-02  0.422504D-02
     15  0.139321D-01  0.789519D-02 -0.922366D-01 -0.223899D-01  0.948378D-02
     16  0.275627D-03  0.203760D-05  0.000000D+00 -0.350975D+00  0.679120D-03
     17 -0.108249D-02  0.284534D-02  0.000000D+00 -0.160890D-01 -0.809058D-01
     18  0.243940D-01 -0.566362D-03  0.000000D+00  0.136945D-01 -0.112965D-01
     19  0.349842D-02  0.198696D-02  0.000000D+00 -0.147133D+00  0.105710D+00
     20  0.195337D-02  0.161166D-02  0.000000D+00  0.122834D+00 -0.277162D+00
     21 -0.133019D-01  0.202849D-01  0.000000D+00 -0.172631D-01  0.637595D-02
     22  0.126097D-01  0.493621D-02  0.000000D+00 -0.105480D+00 -0.125634D-01
     23  0.774367D-02  0.232046D-01  0.000000D+00 -0.137193D-01 -0.119968D+00
     24 -0.577087D-02 -0.998196D-02  0.000000D+00 -0.453624D-01 -0.787210D-01
                6             7             8             9            10 
      6  0.638507D+00
      7  0.000000D+00  0.140363D+00
      8  0.000000D+00 -0.789442D-02  0.602148D-01
      9  0.000000D+00 -0.118845D+00 -0.450590D-02  0.280748D+00
     10  0.000000D+00  0.804255D-03 -0.196370D-01  0.459045D-03  0.594090D-01
     11  0.000000D+00 -0.203468D-04  0.394532D-02 -0.116133D-04  0.460346D-01
     12  0.000000D+00  0.415017D-02  0.324683D-01  0.236879D-02 -0.190865D-01
     13  0.000000D+00  0.961849D-04  0.383360D-02  0.548994D-04  0.140753D-01
     14  0.000000D+00 -0.445896D-02  0.119281D-01 -0.254504D-02  0.347232D-01
     15  0.000000D+00  0.290242D-01 -0.156666D-01  0.165662D-01 -0.143793D-02
     16  0.308644D-02  0.000000D+00  0.328058D-05  0.000000D+00  0.161274D-05
     17 -0.104473D-01  0.000000D+00  0.109660D-02  0.000000D+00  0.539093D-03
     18 -0.783598D-01  0.000000D+00  0.000000D+00  0.000000D+00  0.000000D+00
     19 -0.109404D-01  0.000000D+00 -0.923603D-03  0.000000D+00 -0.454045D-03
     20 -0.204791D-02  0.000000D+00 -0.579053D-03  0.000000D+00 -0.284664D-03
     21 -0.768608D-01  0.000000D+00  0.000000D+00  0.000000D+00  0.000000D+00
     22 -0.357558D-01  0.000000D+00  0.230710D-02  0.000000D+00  0.113417D-02
     23 -0.614098D-01  0.000000D+00 -0.134124D-02  0.000000D+00 -0.659354D-03
     24 -0.301435D+00  0.000000D+00  0.000000D+00  0.000000D+00  0.000000D+00
               11            12            13            14            15 
     11  0.345927D+00
     12 -0.434743D-02  0.674230D-01
     13 -0.225248D-02 -0.946239D-03  0.308756D+00
     14 -0.555725D-02 -0.235278D-02 -0.105864D+00  0.941217D-01
     15  0.233051D-03  0.210680D-03 -0.191285D-01 -0.194542D-02  0.754597D-01
     16  0.000000D+00  0.000000D+00  0.000000D+00 -0.151399D-05  0.000000D+00
     17 -0.853373D-04  0.000000D+00 -0.206528D-03 -0.506083D-03  0.000000D+00
     18  0.000000D+00  0.000000D+00  0.000000D+00  0.000000D+00  0.000000D+00
     19  0.718744D-04  0.000000D+00  0.173946D-03  0.426243D-03  0.000000D+00
     20  0.450617D-04  0.000000D+00  0.109055D-03  0.267233D-03  0.000000D+00
     21  0.000000D+00  0.000000D+00  0.000000D+00  0.000000D+00  0.000000D+00
     22 -0.179537D-03  0.000000D+00 -0.434505D-03 -0.106473D-02  0.000000D+00
     23  0.104374D-03  0.000000D+00  0.252600D-03  0.618980D-03  0.000000D+00
     24  0.000000D+00  0.000000D+00  0.000000D+00  0.000000D+00  0.000000D+00
               16            17            18            19            20 
     16  0.351045D+00
     17 -0.775151D-03  0.507086D-01
     18 -0.316674D-02  0.107984D-01  0.712437D-01
     19  0.856803D-04  0.320411D-01 -0.889902D-03  0.132752D+00
     20  0.536984D-04  0.200707D-01 -0.555002D-03 -0.131954D+00  0.260865D+00
     21 -0.104365D-05 -0.967907D-03  0.161999D-03  0.114783D-01  0.226582D-02
     22 -0.432202D-03 -0.144269D-01 -0.340319D-01  0.110768D-01  0.728891D-02
     23  0.387843D-04  0.677602D-02  0.161947D-02 -0.735875D-02 -0.511795D-02
     24  0.813424D-04  0.616778D-03  0.695410D-02  0.351917D-03  0.337088D-03
               21            22            23            24 
     21  0.702435D-01
     22  0.190877D-01  0.815263D-01
     23 -0.279587D-01  0.137023D-01  0.957233D-01
     24  0.645527D-02  0.507000D-01  0.877491D-01  0.288025D+00
 Force constants in internal coordinates: 
                1             2             3             4             5 
      1  0.181852D+00
      2  0.000000D+00  0.348582D+00
      3  0.000000D+00  0.000000D+00  0.353327D+00
      4  0.000000D+00  0.000000D+00  0.000000D+00  0.353221D+00
      5  0.000000D+00  0.000000D+00  0.000000D+00  0.000000D+00  0.351083D+00
      6  0.000000D+00  0.000000D+00  0.000000D+00  0.000000D+00  0.000000D+00
      7  0.000000D+00  0.000000D+00  0.000000D+00  0.000000D+00  0.000000D+00
      8  0.000000D+00  0.000000D+00  0.000000D+00  0.000000D+00  0.000000D+00
      9  0.000000D+00  0.000000D+00  0.000000D+00  0.000000D+00  0.000000D+00
     10  0.000000D+00  0.000000D+00  0.000000D+00  0.000000D+00  0.000000D+00
     11  0.000000D+00  0.000000D+00  0.000000D+00  0.000000D+00  0.000000D+00
     12  0.000000D+00  0.000000D+00  0.000000D+00  0.000000D+00  0.000000D+00
     13  0.000000D+00  0.000000D+00  0.000000D+00  0.000000D+00  0.000000D+00
     14  0.000000D+00  0.000000D+00  0.000000D+00  0.000000D+00  0.000000D+00
     15  0.000000D+00  0.000000D+00  0.000000D+00  0.000000D+00  0.000000D+00
     16  0.000000D+00  0.000000D+00  0.000000D+00  0.000000D+00  0.000000D+00
     17  0.000000D+00  0.000000D+00  0.000000D+00  0.000000D+00  0.000000D+00
     18  0.000000D+00  0.000000D+00  0.000000D+00  0.000000D+00  0.000000D+00
                6             7             8             9            10 
      6  0.343552D+00
      7  0.000000D+00  0.332902D+00
      8  0.000000D+00  0.000000D+00  0.307506D+00
      9  0.000000D+00  0.000000D+00  0.201910D-01  0.282947D+00
     10  0.000000D+00  0.000000D+00  0.141435D+00  0.888593D-03  0.313233D+00
     11  0.000000D+00  0.000000D+00  0.000000D+00  0.000000D+00  0.000000D+00
     12  0.000000D+00  0.000000D+00  0.000000D+00  0.000000D+00  0.000000D+00
     13  0.000000D+00  0.000000D+00  0.000000D+00  0.000000D+00  0.000000D+00
     14  0.000000D+00  0.000000D+00  0.387762D-02 -0.764710D-01 -0.613992D-02
     15  0.000000D+00  0.000000D+00  0.198665D-01  0.106559D-01  0.380006D-01
     16  0.000000D+00  0.000000D+00  0.000000D+00  0.000000D+00  0.000000D+00
     17  0.000000D+00  0.000000D+00  0.000000D+00  0.000000D+00  0.000000D+00
     18  0.000000D+00  0.000000D+00  0.000000D+00  0.000000D+00  0.000000D+00
               11            12            13            14            15 
     11  0.300708D+00
     12  0.688360D-03  0.299942D+00
     13  0.736095D-01  0.687436D-01  0.257328D+00
     14  0.000000D+00  0.000000D+00  0.000000D+00  0.219503D+00
     15  0.000000D+00  0.000000D+00  0.000000D+00 -0.159339D+00  0.212571D+00
     16  0.245151D-02 -0.252182D-02 -0.272219D-03  0.690000D-02  0.690000D-02
     17 -0.445540D-02  0.467083D-01  0.508084D-02  0.230000D-02  0.230000D-02
     18  0.524684D-01 -0.533423D-01  0.117727D-02  0.230000D-02  0.230000D-02
               16            17            18 
     16  0.484847D-01
     17  0.257409D-01  0.214194D+00
     18 -0.321504D-02 -0.278583D-01  0.521952D-01
 Leave Link  716 at Wed May 26 19:13:24 2021, MaxMem=   13107200 cpu:       0.0
 (Enter /programs/64bit/g09/g09-gfortran/bin/l103.exe)

 GradGradGradGradGradGradGradGradGradGradGradGradGradGradGradGradGradGrad
 Berny optimization.
 Search for a local minimum.
 Step number   1 out of a maximum of    2
 All quantities printed in internal units (Hartrees-Bohrs-Radians)
 Second derivative matrix not updated -- first step.
 The second derivative matrix:
                          d1        a1        t1        d2        a2
           d1           0.18185
           a1           0.00000   0.30751
           t1          -0.00000   0.00388   0.21950
           d2           0.00000   0.00000   0.00000   0.34858
           a2           0.00000   0.02019  -0.07647  -0.00000   0.28295
           t2          -0.00000   0.01987  -0.15934  -0.00000   0.01066
           d3           0.00000  -0.00000  -0.00000  -0.00000  -0.00000
           d4           0.00000  -0.00000   0.00000  -0.00000  -0.00000
           a3           0.00000   0.14143  -0.00614  -0.00000   0.00089
           d5           0.00000   0.00000   0.00000   0.00000  -0.00000
           a4           0.00000   0.00000  -0.00000   0.00000  -0.00000
           t3          -0.00000   0.00000   0.00690   0.00000   0.00000
           d6           0.00000   0.00000   0.00000   0.00000   0.00000
           a5           0.00000   0.00000  -0.00000   0.00000  -0.00000
           t4           0.00000   0.00000   0.00230   0.00000   0.00000
           d7           0.00000   0.00000  -0.00000   0.00000  -0.00000
           a6           0.00000   0.00000   0.00000   0.00000   0.00000
           t5          -0.00000   0.00000   0.00230   0.00000   0.00000
                          t2        d3        d4        a3        d5
           t2           0.21257
           d3          -0.00000   0.35333
           d4           0.00000   0.00000   0.35322
           a3           0.03800   0.00000  -0.00000   0.31323
           d5          -0.00000   0.00000   0.00000   0.00000   0.35108
           a4           0.00000  -0.00000  -0.00000  -0.00000   0.00000
           t3           0.00690  -0.00000  -0.00000  -0.00000  -0.00000
           d6           0.00000  -0.00000  -0.00000  -0.00000   0.00000
           a5           0.00000   0.00000   0.00000   0.00000   0.00000
           t4           0.00230  -0.00000   0.00000   0.00000  -0.00000
           d7           0.00000  -0.00000   0.00000   0.00000   0.00000
           a6          -0.00000   0.00000   0.00000  -0.00000   0.00000
           t5           0.00230  -0.00000  -0.00000  -0.00000   0.00000
                          a4        t3        d6        a5        t4
           a4           0.30071
           t3           0.00245   0.04848
           d6           0.00000   0.00000   0.34355
           a5           0.00069  -0.00252   0.00000   0.29994
           t4          -0.00446   0.02574   0.00000   0.04671   0.21419
           d7           0.00000   0.00000  -0.00000   0.00000   0.00000
           a6           0.07361  -0.00027  -0.00000   0.06874   0.00508
           t5           0.05247  -0.00322  -0.00000  -0.05334  -0.02786
                          d7        a6        t5
           d7           0.33290
           a6          -0.00000   0.25733
           t5          -0.00000   0.00118   0.05220
     Eigenvalues --- 1000.000001000.000001000.000001000.000001000.00000
     Eigenvalues --- 1000.000001000.000001000.000001000.000001000.00000
     Eigenvalues --- 1000.000001000.000001000.000001000.000001000.00000
     Eigenvalues --- 1000.000001000.000001000.00000
 Angle between quadratic step and forces=  90.00 degrees.
 Linear search not attempted -- first point.
 Variable       Old X    -DE/DX   Delta X   Delta X   Delta X     New X
                                 (Linear)    (Quad)   (Total)
    d1        3.20553   0.00968   0.00000   0.00000   0.00000   3.20553
    a1        2.62294  -0.04696   0.00000   0.00000   0.00000   2.62294
    t1        1.72779   0.01723   0.00000   0.00000   0.00000   1.72779
    d2        2.05906   0.00252   0.00000   0.00000   0.00000   2.05906
    a2        1.54535   0.01480   0.00000   0.00000   0.00000   1.54535
    t2       -2.75413   0.01819   0.00000   0.00000   0.00000  -2.75413
    d3        2.05138   0.00750   0.00000   0.00000   0.00000   2.05138
    d4        2.05155   0.00028   0.00000   0.00000   0.00000   2.05155
    a3        1.50976   0.09044   0.00000   0.00000   0.00000   1.50976
    d5        2.05499   0.00021   0.00000   0.00000   0.00000   2.05499
    a4        1.58223   0.03052   0.00000   0.00000   0.00000   1.58223
    t3        3.13860   0.00010   0.00000   0.00000   0.00000   3.13860
    d6        2.06735  -0.00024   0.00000   0.00000   0.00000   2.06735
    a5        1.58608   0.04623   0.00000   0.00000   0.00000   1.58608
    t4        2.13379  -0.04927   0.00000   0.00000   0.00000   2.13379
    d7        2.08545  -0.00054   0.00000   0.00000   0.00000   2.08545
    a6        2.72473  -0.09909   0.00000   0.00000   0.00000   2.72473
    t5       -2.09440   0.00008   0.00000   0.00000   0.00000  -2.09440
         Item               Value     Threshold  Converged?
 Maximum Force            0.000000     0.000450     YES
 RMS     Force            0.000000     0.000300     YES
 Maximum Displacement     0.000000     0.001800     YES
 RMS     Displacement     0.000000     0.001200     YES
 Predicted change in Energy=-0.000000D+00
 Optimization completed.
    -- Stationary point found.
                       ----------------------------
                       !   Optimized Parameters   !
                       ! (Angstroms and Degrees)  !
 ----------------------                            ----------------------
 !      Name          Value   Derivative information (Atomic Units)     !
 ------------------------------------------------------------------------
 !       d1          1.6963   -DE/DX =    0.0097                        !
 !       a1        150.2836   -DE/DX =   -0.047                         !
 !       t1         98.9952   -DE/DX =    0.0172                        !
 !       d2          1.0896   -DE/DX =    0.0025                        !
 !       a2         88.5418   -DE/DX =    0.0148                        !
 !       t2       -157.8001   -DE/DX =    0.0182                        !
 !       d3          1.0855   -DE/DX =    0.0075                        !
 !       d4          1.0856   -DE/DX =    0.0003                        !
 !       a3         86.5027   -DE/DX =    0.0904                        !
 !       d5          1.0875   -DE/DX =    0.0002                        !
 !       a4         90.655    -DE/DX =    0.0305                        !
 !       t3        179.8286   -DE/DX =    0.0001                        !
 !       d6          1.094    -DE/DX =   -0.0002                        !
 !       a5         90.8757   -DE/DX =    0.0462                        !
 !       t4        122.2571   -DE/DX =   -0.0493                        !
 !       d7          1.1036   -DE/DX =   -0.0005                        !
 !       a6        156.1153   -DE/DX =   -0.0991                        !
 !       t5       -120.0003   -DE/DX =    0.0001                        !
 ------------------------------------------------------------------------
 GradGradGradGradGradGradGradGradGradGradGradGradGradGradGradGradGradGrad

 Leave Link  103 at Wed May 26 19:13:24 2021, MaxMem=   13107200 cpu:       0.0
 (Enter /programs/64bit/g09/g09-gfortran/bin/l9999.exe)
 1\1\GINC-MOLMOD\Force\RB3LYP\6-31+G(d,p)\C2H6\OSPITE\26-May-2021\1\\#p
  b3lyp/6-31+g(d,p) force nosym\\c2h6 molecule\\0,1\C\C,1,d1\H,1,d2,2,a
 1\H,1,d3,2,a2,3,t1,0\H,1,d4,2,a3,3,t2,0\H,2,d5,1,a4,3,t3,0\H,2,d6,1,a5
 ,6,t4,0\H,2,d7,1,a6,6,t5,0\\d1=1.69629227\a1=150.28358478\t1=98.995161
 3\d2=1.08960644\a2=88.54175494\t2=-157.80007842\d3=1.08554448\d4=1.085
 63396\a3=86.50269615\d5=1.08745557\a4=90.65495725\t3=179.82859553\d6=1
 .09399294\a5=90.87567368\t4=122.2570592\d7=1.1035718\a6=156.11527632\t
 5=-120.00026636\\Version=EM64L-G09RevA.02\HF=-79.720659\RMSD=3.606e-09
 \RMSF=2.227e-02\Dipole=-0.1016035,-0.2106403,-0.0085864\Quadrupole=0.0
 61623,-0.625739,0.564116,-0.7644829,-0.5380987,0.1500552\PG=C01 [X(C2H
 6)]\\@


 SOME PHYSICISTS WOULD PREFER TO COME BACK TO THE IDEA OF AN OBJECTIVE
 REAL WORLD WHOSE SMALLEST PARTS EXIST OBJECTIVELY IN THE SAME SENSE AS
 STONES OR TREES EXIST INDEPENDENTLY OF WHETHER WE OBSERVE THEM.
 THIS, HOWEVER, IS IMPOSSIBLE.  -- WERNER HEISENBERG
 Job cpu time:  0 days  0 hours  0 minutes  9.1 seconds.
 File lengths (MBytes):  RWF=      5 Int=      0 D2E=      0 Chk=      1 Scr=      1
 Normal termination of Gaussian 09 at Wed May 26 19:13:24 2021.
