 Entering Gaussian System, Link 0=g09
 Input=c2h6_023.com
 Output=c2h6_023.log
 Initial command:
 /programs/64bit/g09/g09-gfortran/bin/l1.exe /data/scratch/Gau-6428.inp -scrdir=/data/scratch/
 Entering Link 1 = /programs/64bit/g09/g09-gfortran/bin/l1.exe PID=      6429.
  
 Copyright (c) 1988,1990,1992,1993,1995,1998,2003,2009, Gaussian, Inc.
                  All Rights Reserved.
  
 This is part of the Gaussian(R) 09 program.  It is based on
 the Gaussian(R) 03 system (copyright 2003, Gaussian, Inc.),
 the Gaussian(R) 98 system (copyright 1998, Gaussian, Inc.),
 the Gaussian(R) 94 system (copyright 1995, Gaussian, Inc.),
 the Gaussian 92(TM) system (copyright 1992, Gaussian, Inc.),
 the Gaussian 90(TM) system (copyright 1990, Gaussian, Inc.),
 the Gaussian 88(TM) system (copyright 1988, Gaussian, Inc.),
 the Gaussian 86(TM) system (copyright 1986, Carnegie Mellon
 University), and the Gaussian 82(TM) system (copyright 1983,
 Carnegie Mellon University). Gaussian is a federally registered
 trademark of Gaussian, Inc.
  
 This software contains proprietary and confidential information,
 including trade secrets, belonging to Gaussian, Inc.
  
 This software is provided under written license and may be
 used, copied, transmitted, or stored only in accord with that
 written license.
  
 The following legend is applicable only to US Government
 contracts under FAR:
  
                    RESTRICTED RIGHTS LEGEND
  
 Use, reproduction and disclosure by the US Government is
 subject to restrictions as set forth in subparagraphs (a)
 and (c) of the Commercial Computer Software - Restricted
 Rights clause in FAR 52.227-19.
  
 Gaussian, Inc.
 340 Quinnipiac St., Bldg. 40, Wallingford CT 06492
  
  
 ---------------------------------------------------------------
 Warning -- This program may not be used in any manner that
 competes with the business of Gaussian, Inc. or will provide
 assistance to any competitor of Gaussian, Inc.  The licensee
 of this program is prohibited from giving any competitor of
 Gaussian, Inc. access to this program.  By using this program,
 the user acknowledges that Gaussian, Inc. is engaged in the
 business of creating and licensing software in the field of
 computational chemistry and represents and warrants to the
 licensee that it is not a competitor of Gaussian, Inc. and that
 it will not use this program in any manner prohibited above.
 ---------------------------------------------------------------
  

 Cite this work as:
 Gaussian 09, Revision A.02,
 M. J. Frisch, G. W. Trucks, H. B. Schlegel, G. E. Scuseria, 
 M. A. Robb, J. R. Cheeseman, G. Scalmani, V. Barone, B. Mennucci, 
 G. A. Petersson, H. Nakatsuji, M. Caricato, X. Li, H. P. Hratchian, 
 A. F. Izmaylov, J. Bloino, G. Zheng, J. L. Sonnenberg, M. Hada, 
 M. Ehara, K. Toyota, R. Fukuda, J. Hasegawa, M. Ishida, T. Nakajima, 
 Y. Honda, O. Kitao, H. Nakai, T. Vreven, J. A. Montgomery, Jr., 
 J. E. Peralta, F. Ogliaro, M. Bearpark, J. J. Heyd, E. Brothers, 
 K. N. Kudin, V. N. Staroverov, R. Kobayashi, J. Normand, 
 K. Raghavachari, A. Rendell, J. C. Burant, S. S. Iyengar, J. Tomasi, 
 M. Cossi, N. Rega, J. M. Millam, M. Klene, J. E. Knox, J. B. Cross, 
 V. Bakken, C. Adamo, J. Jaramillo, R. Gomperts, R. E. Stratmann, 
 O. Yazyev, A. J. Austin, R. Cammi, C. Pomelli, J. W. Ochterski, 
 R. L. Martin, K. Morokuma, V. G. Zakrzewski, G. A. Voth, 
 P. Salvador, J. J. Dannenberg, S. Dapprich, A. D. Daniels, 
 O. Farkas, J. B. Foresman, J. V. Ortiz, J. Cioslowski, 
 and D. J. Fox, Gaussian, Inc., Wallingford CT, 2009.
 
 ******************************************
 Gaussian 09:  EM64L-G09RevA.02 11-Jun-2009
                26-May-2021 
 ******************************************
 %chk=c2h6_023.chk
 %mem=100MB
 --------------------------------
 #p b3lyp/6-31+g(d,p) force nosym
 --------------------------------
 1/10=7,30=1,38=1/1,3;
 2/12=2,15=1,17=6,18=5,40=1/2;
 3/5=1,6=6,7=111,11=2,16=1,25=1,30=1,71=1,74=-5/1,2,3;
 4//1;
 5/5=2,38=5/2;
 6/7=2,8=2,9=2,10=2,28=1/1;
 7/29=1,30=1/1,2,3,16;
 1/10=7,30=1/3;
 99//99;
 Leave Link    1 at Wed May 26 19:11:39 2021, MaxMem=   13107200 cpu:       0.0
 (Enter /programs/64bit/g09/g09-gfortran/bin/l101.exe)
 -------------
 c2h6 molecule
 -------------
 Symbolic Z-matrix:
 Charge =  0 Multiplicity = 1
 C1
 C2                   1    d1
 H3                   1    d2       2    a1
 H4                   1    d3       2    a2       3    t1       0
 H5                   1    d4       2    a3       3    t2       0
 H6                   2    d5       1    a4       3    t3       0
 H7                   2    d6       1    a5       6    t4       0
 H8                   2    d7       1    a6       6    t5       0
       Variables:
       Constants:
  d1                    1.54522                  
  a1                  161.6162                   
  t1                  107.21303                  
  d2                    1.19181                  
  a2                   96.94509                  
  t2                 -166.1387                   
  d3                    1.42686                  
  d4                    1.08834                  
  a3                   95.19886                  
  d5                    1.08857                  
  a4                   97.80662                  
  t3                  179.89801                  
  d6                    1.1346                   
  a5                   97.91736                  
  t4                  121.4638                   
  d7                    1.07178                  
  a6                  165.25703                  
  t5                 -120.00023                  
 
 NAtoms=      8 NQM=      8 NQMF=      0 NMic=      0 NMicF=      0 NTot=      8.
                    Isotopes and Nuclear Properties:
 (Nuclear quadrupole moments (NQMom) in fm**2, nuclear magnetic moments (NMagM)
  in nuclear magnetons)

  Atom         1           2           3           4           5           6           7           8
 IAtWgt=          12          12           1           1           1           1           1           1
 AtmWgt=  12.0000000  12.0000000   1.0078250   1.0078250   1.0078250   1.0078250   1.0078250   1.0078250
 NucSpn=           0           0           1           1           1           1           1           1
 AtZEff=   0.0000000   0.0000000   0.0000000   0.0000000   0.0000000   0.0000000   0.0000000   0.0000000
 NQMom=    0.0000000   0.0000000   0.0000000   0.0000000   0.0000000   0.0000000   0.0000000   0.0000000
 NMagM=    0.0000000   0.0000000   2.7928460   2.7928460   2.7928460   2.7928460   2.7928460   2.7928460
 Leave Link  101 at Wed May 26 19:11:39 2021, MaxMem=   13107200 cpu:       0.0
 (Enter /programs/64bit/g09/g09-gfortran/bin/l103.exe)

 GradGradGradGradGradGradGradGradGradGradGradGradGradGradGradGradGradGrad
 Berny optimization.
 Initialization pass.
                       ----------------------------
                       !    Initial Parameters    !
                       ! (Angstroms and Degrees)  !
 ----------------------                            ----------------------
 !      Name          Value   Derivative information (Atomic Units)     !
 ------------------------------------------------------------------------
 !       d1          1.5452   Frozen                                    !
 !       a1        161.6162   Frozen                                    !
 !       t1        107.213    Frozen                                    !
 !       d2          1.1918   Frozen                                    !
 !       a2         96.9451   Frozen                                    !
 !       t2       -166.1387   Frozen                                    !
 !       d3          1.4269   Frozen                                    !
 !       d4          1.0883   Frozen                                    !
 !       a3         95.1989   Frozen                                    !
 !       d5          1.0886   Frozen                                    !
 !       a4         97.8066   Frozen                                    !
 !       t3        179.898    Frozen                                    !
 !       d6          1.1346   Frozen                                    !
 !       a5         97.9174   Frozen                                    !
 !       t4        121.4638   Frozen                                    !
 !       d7          1.0718   Frozen                                    !
 !       a6        165.257    Frozen                                    !
 !       t5       -120.0002   Frozen                                    !
 ------------------------------------------------------------------------
 Trust Radius=3.00D-01 FncErr=1.00D-07 GrdErr=1.00D-07
 Number of steps in this run=   2 maximum allowed number of steps=   2.
 GradGradGradGradGradGradGradGradGradGradGradGradGradGradGradGradGradGrad

 Leave Link  103 at Wed May 26 19:11:39 2021, MaxMem=   13107200 cpu:       0.0
 (Enter /programs/64bit/g09/g09-gfortran/bin/l202.exe)
                          Input orientation:                          
 ---------------------------------------------------------------------
 Center     Atomic      Atomic             Coordinates (Angstroms)
 Number     Number       Type             X           Y           Z
 ---------------------------------------------------------------------
      1          6           0        0.000000    0.000000    0.000000
      2          6           0        0.000000    0.000000    1.545217
      3          1           0        0.375873    0.000000   -1.130984
      4          1           0       -0.419145   -1.352949   -0.172533
      5          1           0       -1.052303    0.259665   -0.098618
      6          1           0       -1.078480    0.001920    1.693078
      7          1           0        0.584863   -0.959597    1.701502
      8          1           0        0.136797    0.235966    2.581715
 ---------------------------------------------------------------------
                    Distance matrix (angstroms):
                    1          2          3          4          5
     1  C    0.000000
     2  C    1.545217   0.000000
     3  H    1.191808   2.702468   0.000000
     4  H    1.426857   2.226391   1.838792   0.000000
     5  H    1.088344   1.969000   1.781262   1.734035   0.000000
     6  H    2.007395   1.088570   3.176550   2.398102   1.810329
     7  H    2.039117   1.134599   2.997913   2.162120   2.721643
     8  H    2.596082   1.071784   3.727864   3.227941   2.932355
                    6          7          8
     6  H    0.000000
     7  H    1.921274   0.000000
     8  H    1.523598   1.550776   0.000000
 Symmetry turned off by external request.
 Stoichiometry    C2H6
 Framework group  C1[X(C2H6)]
 Deg. of freedom    18
 Full point group                 C1      NOp   1
 Rotational constants (GHZ):     89.2468044     18.5970627     18.1375610
 Leave Link  202 at Wed May 26 19:11:39 2021, MaxMem=   13107200 cpu:       0.0
 (Enter /programs/64bit/g09/g09-gfortran/bin/l301.exe)
 Standard basis: 6-31+G(d,p) (6D, 7F)
 Ernie: Thresh=  0.10000D-02 Tol=  0.10000D-05 Strict=F.
 Integral buffers will be    131072 words long.
 Raffenetti 2 integral format.
 Two-electron integral symmetry is turned off.
    68 basis functions,   106 primitive gaussians,    68 cartesian basis functions
     9 alpha electrons        9 beta electrons
       nuclear repulsion energy        41.0236868332 Hartrees.
 IExCor=  402 DFT=T Ex+Corr=B3LYP ExCW=0 ScaHFX=  0.200000
 ScaDFX=  0.800000  0.720000  1.000000  0.810000 ScalE2=  1.000000  1.000000
 IRadAn=      0 IRanWt=     -1 IRanGd=            0 ICorTp=0
 NAtoms=    8 NActive=    8 NUniq=    8 SFac= 7.50D-01 NAtFMM=   80 NAOKFM=F Big=F
 Leave Link  301 at Wed May 26 19:11:39 2021, MaxMem=   13107200 cpu:       0.0
 (Enter /programs/64bit/g09/g09-gfortran/bin/l302.exe)
 NPDir=0 NMtPBC=     1 NCelOv=     1 NCel=       1 NClECP=     1 NCelD=      1
         NCelK=      1 NCelE2=     1 NClLst=     1 CellRange=     0.0.
 One-electron integrals computed using PRISM.
 NBasis=    68 RedAO= T  NBF=    68
 NBsUse=    68 1.00D-06 NBFU=    68
 Precomputing XC quadrature grid using
 IXCGrd= 2 IRadAn=           0 IRanWt=          -1 IRanGd=           0 AccXCQ= 1.00D-10.
 NRdTot=     510 NPtTot=       65100 NUsed=       68787 NTot=       68819
 NSgBfM=    68    68    68    68    68 NAtAll=     8     8.
 Leave Link  302 at Wed May 26 19:11:39 2021, MaxMem=   13107200 cpu:       0.1
 (Enter /programs/64bit/g09/g09-gfortran/bin/l303.exe)
 DipDrv:  MaxL=1.
 Leave Link  303 at Wed May 26 19:11:39 2021, MaxMem=   13107200 cpu:       0.0
 (Enter /programs/64bit/g09/g09-gfortran/bin/l401.exe)
 Harris functional with IExCor=  402 diagonalized for initial guess.
 ExpMin= 4.38D-02 ExpMax= 3.05D+03 ExpMxC= 4.57D+02 IAcc=2 IRadAn=         0 AccDes= 0.00D+00
 HarFok:  IExCor=  402 AccDes= 0.00D+00 IRadAn=         0 IDoV= 1
 ScaDFX=  1.000000  1.000000  1.000000  1.000000
 FoFCou: FMM=F IPFlag=           0 FMFlag=      100000 FMFlg1=           0
         NFxFlg=           0 DoJE=T BraDBF=F KetDBF=T FulRan=T
         Omega=  0.000000  0.000000  1.000000  0.000000  0.000000 ICntrl=     500 IOpCl=  0
         NMat0=    1 NMatS0=    1 NMatT0=    0 NMatD0=    1 NMtDS0=    0 NMtDT0=    0
         I1Cent=           4 NGrid=           0.
 Symmetry not used in FoFCou.
 Harris En= -79.6954406077081    
 Leave Link  401 at Wed May 26 19:11:40 2021, MaxMem=   13107200 cpu:       0.8
 (Enter /programs/64bit/g09/g09-gfortran/bin/l502.exe)
 Closed shell SCF:
 Requested convergence on RMS density matrix=1.00D-08 within 128 cycles.
 Requested convergence on MAX density matrix=1.00D-06.
 Requested convergence on             energy=1.00D-06.
 No special actions if energy rises.
 Using DIIS extrapolation, IDIIS=  1040.
 Two-electron integral symmetry not used.
        68702 words used for storage of precomputed grid.
 Keep R1 ints in memory in canonical form, NReq=3743087.
 IEnd=      101552 IEndB=      101552 NGot=    13107200 MDV=    10273922
 LenX=    10273922 LenY=    10268857
 Symmetry not used in FoFDir.
 MinBra= 0 MaxBra= 2 Meth= 1.
 IRaf=       0 NMat=   1 IRICut=       1 DoRegI=T DoRafI=F ISym2E= 0 JSym2E=0.

 Cycle   1  Pass 1  IDiag  1:
 E= -79.5464853417662    
 DIIS: error= 3.72D-02 at cycle   1 NSaved=   1.
 NSaved= 1 IEnMin= 1 EnMin= -79.5464853417662     IErMin= 1 ErrMin= 3.72D-02
 ErrMax= 3.72D-02 EMaxC= 1.00D-01 BMatC= 9.84D-02 BMatP= 9.84D-02
 IDIUse=3 WtCom= 6.28D-01 WtEn= 3.72D-01
 Coeff-Com:  0.100D+01
 Coeff-En:   0.100D+01
 Coeff:      0.100D+01
 Gap=     0.248 Goal=   None    Shift=    0.000
 GapD=    0.248 DampG=1.000 DampE=0.500 DampFc=0.5000 IDamp=-1.
 Damping current iteration by 5.00D-01
 RMSDP=2.03D-02 MaxDP=3.45D-01              OVMax= 2.43D-01

 Cycle   2  Pass 1  IDiag  1:
 E= -79.5843654639451     Delta-E=       -0.037880122179 Rises=F Damp=T
 DIIS: error= 8.63D-03 at cycle   2 NSaved=   2.
 NSaved= 2 IEnMin= 2 EnMin= -79.5843654639451     IErMin= 2 ErrMin= 8.63D-03
 ErrMax= 8.63D-03 EMaxC= 1.00D-01 BMatC= 8.31D-03 BMatP= 9.84D-02
 IDIUse=3 WtCom= 9.14D-01 WtEn= 8.63D-02
 Coeff-Com:  0.178D+00 0.822D+00
 Coeff-En:   0.299D+00 0.701D+00
 Coeff:      0.188D+00 0.812D+00
 Gap=     0.252 Goal=   None    Shift=    0.000
 RMSDP=5.80D-03 MaxDP=1.34D-01 DE=-3.79D-02 OVMax= 1.50D-01

 Cycle   3  Pass 1  IDiag  1:
 E= -79.6586300977637     Delta-E=       -0.074264633819 Rises=F Damp=F
 DIIS: error= 3.05D-03 at cycle   3 NSaved=   3.
 NSaved= 3 IEnMin= 3 EnMin= -79.6586300977637     IErMin= 3 ErrMin= 3.05D-03
 ErrMax= 3.05D-03 EMaxC= 1.00D-01 BMatC= 8.74D-04 BMatP= 8.31D-03
 IDIUse=3 WtCom= 9.69D-01 WtEn= 3.05D-02
 Coeff-Com:  0.348D-01 0.239D+00 0.726D+00
 Coeff-En:   0.000D+00 0.000D+00 0.100D+01
 Coeff:      0.338D-01 0.232D+00 0.735D+00
 Gap=     0.246 Goal=   None    Shift=    0.000
 RMSDP=7.24D-04 MaxDP=1.03D-02 DE=-7.43D-02 OVMax= 1.67D-02

 Cycle   4  Pass 1  IDiag  1:
 E= -79.6592538359713     Delta-E=       -0.000623738208 Rises=F Damp=F
 DIIS: error= 2.32D-03 at cycle   4 NSaved=   4.
 NSaved= 4 IEnMin= 4 EnMin= -79.6592538359713     IErMin= 4 ErrMin= 2.32D-03
 ErrMax= 2.32D-03 EMaxC= 1.00D-01 BMatC= 3.13D-04 BMatP= 8.74D-04
 IDIUse=3 WtCom= 9.77D-01 WtEn= 2.32D-02
 Coeff-Com:  0.660D-02 0.537D-01 0.389D+00 0.551D+00
 Coeff-En:   0.000D+00 0.000D+00 0.245D+00 0.755D+00
 Coeff:      0.645D-02 0.525D-01 0.386D+00 0.555D+00
 Gap=     0.245 Goal=   None    Shift=    0.000
 RMSDP=2.59D-04 MaxDP=4.30D-03 DE=-6.24D-04 OVMax= 7.17D-03

 Cycle   5  Pass 1  IDiag  1:
 E= -79.6595698753832     Delta-E=       -0.000316039412 Rises=F Damp=F
 DIIS: error= 4.55D-04 at cycle   5 NSaved=   5.
 NSaved= 5 IEnMin= 5 EnMin= -79.6595698753832     IErMin= 5 ErrMin= 4.55D-04
 ErrMax= 4.55D-04 EMaxC= 1.00D-01 BMatC= 1.45D-05 BMatP= 3.13D-04
 IDIUse=3 WtCom= 9.95D-01 WtEn= 4.55D-03
 Coeff-Com:  0.274D-03-0.429D-02 0.831D-01 0.231D+00 0.690D+00
 Coeff-En:   0.000D+00 0.000D+00 0.000D+00 0.000D+00 0.100D+01
 Coeff:      0.273D-03-0.427D-02 0.827D-01 0.230D+00 0.691D+00
 Gap=     0.245 Goal=   None    Shift=    0.000
 RMSDP=1.05D-04 MaxDP=1.35D-03 DE=-3.16D-04 OVMax= 1.20D-03

 Cycle   6  Pass 1  IDiag  1:
 E= -79.6595847148924     Delta-E=       -0.000014839509 Rises=F Damp=F
 DIIS: error= 2.68D-05 at cycle   6 NSaved=   6.
 NSaved= 6 IEnMin= 6 EnMin= -79.6595847148924     IErMin= 6 ErrMin= 2.68D-05
 ErrMax= 2.68D-05 EMaxC= 1.00D-01 BMatC= 6.21D-08 BMatP= 1.45D-05
 IDIUse=1 WtCom= 1.00D+00 WtEn= 0.00D+00
 Coeff-Com:  0.268D-03-0.150D-02 0.149D-01 0.433D-01 0.150D+00 0.793D+00
 Coeff:      0.268D-03-0.150D-02 0.149D-01 0.433D-01 0.150D+00 0.793D+00
 Gap=     0.245 Goal=   None    Shift=    0.000
 RMSDP=6.86D-06 MaxDP=6.84D-05 DE=-1.48D-05 OVMax= 9.70D-05

 Cycle   7  Pass 1  IDiag  1:
 E= -79.6595847803342     Delta-E=       -0.000000065442 Rises=F Damp=F
 DIIS: error= 6.62D-06 at cycle   7 NSaved=   7.
 NSaved= 7 IEnMin= 7 EnMin= -79.6595847803342     IErMin= 7 ErrMin= 6.62D-06
 ErrMax= 6.62D-06 EMaxC= 1.00D-01 BMatC= 3.34D-09 BMatP= 6.21D-08
 IDIUse=1 WtCom= 1.00D+00 WtEn= 0.00D+00
 Coeff-Com:  0.104D-03-0.186D-03-0.112D-02-0.336D-02-0.464D-02 0.157D+00
 Coeff-Com:  0.852D+00
 Coeff:      0.104D-03-0.186D-03-0.112D-02-0.336D-02-0.464D-02 0.157D+00
 Coeff:      0.852D+00
 Gap=     0.245 Goal=   None    Shift=    0.000
 RMSDP=2.55D-06 MaxDP=3.88D-05 DE=-6.54D-08 OVMax= 3.31D-05

 Cycle   8  Pass 1  IDiag  1:
 E= -79.6595847846744     Delta-E=       -0.000000004340 Rises=F Damp=F
 DIIS: error= 6.16D-07 at cycle   8 NSaved=   8.
 NSaved= 8 IEnMin= 8 EnMin= -79.6595847846744     IErMin= 8 ErrMin= 6.16D-07
 ErrMax= 6.16D-07 EMaxC= 1.00D-01 BMatC= 3.83D-11 BMatP= 3.34D-09
 IDIUse=1 WtCom= 1.00D+00 WtEn= 0.00D+00
 Coeff-Com:  0.769D-05-0.377D-05-0.410D-03-0.118D-02-0.315D-02 0.107D-01
 Coeff-Com:  0.149D+00 0.845D+00
 Coeff:      0.769D-05-0.377D-05-0.410D-03-0.118D-02-0.315D-02 0.107D-01
 Coeff:      0.149D+00 0.845D+00
 Gap=     0.245 Goal=   None    Shift=    0.000
 RMSDP=2.61D-07 MaxDP=2.93D-06 DE=-4.34D-09 OVMax= 5.44D-06

 Cycle   9  Pass 1  IDiag  1:
 E= -79.6595847847423     Delta-E=       -0.000000000068 Rises=F Damp=F
 DIIS: error= 1.22D-07 at cycle   9 NSaved=   9.
 NSaved= 9 IEnMin= 9 EnMin= -79.6595847847423     IErMin= 9 ErrMin= 1.22D-07
 ErrMax= 1.22D-07 EMaxC= 1.00D-01 BMatC= 1.62D-12 BMatP= 3.83D-11
 IDIUse=1 WtCom= 1.00D+00 WtEn= 0.00D+00
 Coeff-Com: -0.215D-05 0.424D-05-0.521D-04-0.144D-03-0.502D-03-0.191D-02
 Coeff-Com:  0.328D-02 0.177D+00 0.823D+00
 Coeff:     -0.215D-05 0.424D-05-0.521D-04-0.144D-03-0.502D-03-0.191D-02
 Coeff:      0.328D-02 0.177D+00 0.823D+00
 Gap=     0.245 Goal=   None    Shift=    0.000
 RMSDP=4.71D-08 MaxDP=5.56D-07 DE=-6.79D-11 OVMax= 7.96D-07

 Cycle  10  Pass 1  IDiag  1:
 E= -79.6595847847446     Delta-E=       -0.000000000002 Rises=F Damp=F
 DIIS: error= 3.83D-08 at cycle  10 NSaved=  10.
 NSaved=10 IEnMin=10 EnMin= -79.6595847847446     IErMin=10 ErrMin= 3.83D-08
 ErrMax= 3.83D-08 EMaxC= 1.00D-01 BMatC= 5.96D-14 BMatP= 1.62D-12
 IDIUse=1 WtCom= 1.00D+00 WtEn= 0.00D+00
 Coeff-Com: -0.769D-06 0.966D-06-0.233D-05-0.705D-05-0.461D-04-0.623D-03
 Coeff-Com: -0.313D-02 0.230D-01 0.199D+00 0.782D+00
 Coeff:     -0.769D-06 0.966D-06-0.233D-05-0.705D-05-0.461D-04-0.623D-03
 Coeff:     -0.313D-02 0.230D-01 0.199D+00 0.782D+00
 Gap=     0.245 Goal=   None    Shift=    0.000
 RMSDP=1.07D-08 MaxDP=1.43D-07 DE=-2.20D-12 OVMax= 1.54D-07

 Cycle  11  Pass 1  IDiag  1:
 E= -79.6595847847449     Delta-E=       -0.000000000000 Rises=F Damp=F
 DIIS: error= 7.27D-09 at cycle  11 NSaved=  11.
 NSaved=11 IEnMin=11 EnMin= -79.6595847847449     IErMin=11 ErrMin= 7.27D-09
 ErrMax= 7.27D-09 EMaxC= 1.00D-01 BMatC= 2.89D-15 BMatP= 5.96D-14
 IDIUse=1 WtCom= 1.00D+00 WtEn= 0.00D+00
 Coeff-Com: -0.560D-07 0.732D-07 0.184D-05 0.412D-05 0.797D-05-0.588D-04
 Coeff-Com: -0.990D-03-0.376D-02 0.296D-02 0.175D+00 0.827D+00
 Coeff:     -0.560D-07 0.732D-07 0.184D-05 0.412D-05 0.797D-05-0.588D-04
 Coeff:     -0.990D-03-0.376D-02 0.296D-02 0.175D+00 0.827D+00
 Gap=     0.245 Goal=   None    Shift=    0.000
 RMSDP=2.10D-09 MaxDP=2.49D-08 DE=-3.55D-13 OVMax= 2.40D-08

 SCF Done:  E(RB3LYP) =  -79.6595847847     A.U. after   11 cycles
             Convg  =    0.2105D-08             -V/T =  2.0132
 KE= 7.862358069675D+01 PE=-2.651011808268D+02 EE= 6.579432851205D+01
 Leave Link  502 at Wed May 26 19:11:48 2021, MaxMem=   13107200 cpu:       8.0
 (Enter /programs/64bit/g09/g09-gfortran/bin/l601.exe)
 Copying SCF densities to generalized density rwf, IOpCl= 0 IROHF=0.

 **********************************************************************

            Population analysis using the SCF density.

 **********************************************************************

 Alpha  occ. eigenvalues --  -10.23282 -10.20076  -0.76779  -0.62780  -0.45943
 Alpha  occ. eigenvalues --   -0.44653  -0.35738  -0.32932  -0.25723
 Alpha virt. eigenvalues --   -0.01197   0.00318   0.04052   0.04947   0.06054
 Alpha virt. eigenvalues --    0.07571   0.08715   0.09834   0.10711   0.15717
 Alpha virt. eigenvalues --    0.19512   0.20158   0.23756   0.30476   0.36699
 Alpha virt. eigenvalues --    0.64925   0.65307   0.67710   0.69668   0.75049
 Alpha virt. eigenvalues --    0.79660   0.85885   0.88180   0.91300   0.98428
 Alpha virt. eigenvalues --    1.00824   1.03720   1.07445   1.25555   1.37462
 Alpha virt. eigenvalues --    1.43197   1.47027   1.66089   1.77073   1.90612
 Alpha virt. eigenvalues --    1.92966   2.00231   2.01939   2.11473   2.19616
 Alpha virt. eigenvalues --    2.27304   2.27704   2.32917   2.35703   2.46064
 Alpha virt. eigenvalues --    2.49127   2.57065   2.64875   2.67975   2.81134
 Alpha virt. eigenvalues --    2.93965   2.98785   3.17811   3.23803   3.37918
 Alpha virt. eigenvalues --    3.41270   3.78042   4.23376   4.87282
          Condensed to atoms (all electrons):
              1          2          3          4          5          6
     1  C    5.512130   0.016206   0.312777   0.491892   0.375716  -0.131759
     2  C    0.016206   5.292808   0.036095  -0.161023  -0.060926   0.482292
     3  H    0.312777   0.036095   0.532791  -0.042494  -0.030504   0.004196
     4  H    0.491892  -0.161023  -0.042494   0.723116  -0.046964  -0.009192
     5  H    0.375716  -0.060926  -0.030504  -0.046964   0.619170  -0.020962
     6  H   -0.131759   0.482292   0.004196  -0.009192  -0.020962   0.611198
     7  H   -0.148908   0.476327   0.002291  -0.032519   0.008361  -0.011627
     8  H    0.075589   0.293392  -0.000835   0.004561   0.000365  -0.063691
              7          8
     1  C   -0.148908   0.075589
     2  C    0.476327   0.293392
     3  H    0.002291  -0.000835
     4  H   -0.032519   0.004561
     5  H    0.008361   0.000365
     6  H   -0.011627  -0.063691
     7  H    0.612635  -0.056950
     8  H   -0.056950   0.572738
 Mulliken atomic charges:
              1
     1  C   -0.503643
     2  C   -0.375171
     3  H    0.185683
     4  H    0.072623
     5  H    0.155744
     6  H    0.139545
     7  H    0.150390
     8  H    0.174830
 Sum of Mulliken atomic charges =  -0.00000
 Mulliken charges with hydrogens summed into heavy atoms:
              1
     1  C   -0.089595
     2  C    0.089595
 Sum of Mulliken charges with hydrogens summed into heavy atoms =  -0.00000
 Electronic spatial extent (au):  <R**2>=            155.9844
 Charge=              0.0000 electrons
 Dipole moment (field-independent basis, Debye):
    X=             -0.4560    Y=             -0.1894    Z=              0.2687  Tot=              0.5621
 Quadrupole moment (field-independent basis, Debye-Ang):
   XX=            -15.8482   YY=            -17.5526   ZZ=            -13.6025
   XY=             -0.7960   XZ=             -0.6199   YZ=             -0.3622
 Traceless Quadrupole moment (field-independent basis, Debye-Ang):
   XX=             -0.1804   YY=             -1.8848   ZZ=              2.0653
   XY=             -0.7960   XZ=             -0.6199   YZ=             -0.3622
 Octapole moment (field-independent basis, Debye-Ang**2):
  XXX=              2.2935  YYY=              5.3893  ZZZ=            -30.8305  XYY=              1.3426
  XXY=              1.8374  XXZ=            -11.2850  XZZ=              0.5902  YZZ=              0.7525
  YYZ=            -12.7631  XYZ=             -1.2271
 Hexadecapole moment (field-independent basis, Debye-Ang**3):
 XXXX=            -31.9687 YYYY=            -39.3988 ZZZZ=           -140.4432 XXXY=             -1.2308
 XXXZ=              0.4410 YYYX=             -0.8598 YYYZ=              0.9334 ZZZX=             -1.0827
 ZZZY=              0.1198 XXYY=            -12.1662 XXZZ=            -32.5035 YYZZ=            -36.8643
 XXYZ=              0.4285 YYXZ=              0.8288 ZZXY=             -2.3833
 N-N= 4.102368683324D+01 E-N=-2.651011808965D+02  KE= 7.862358069675D+01
 No NMR shielding tensors so no spin-rotation constants.
 Leave Link  601 at Wed May 26 19:11:48 2021, MaxMem=   13107200 cpu:       0.0
 (Enter /programs/64bit/g09/g09-gfortran/bin/l701.exe)
 Compute integral first derivatives.
 ... and contract with generalized density number  0.
 Leave Link  701 at Wed May 26 19:11:48 2021, MaxMem=   13107200 cpu:       0.1
 (Enter /programs/64bit/g09/g09-gfortran/bin/l702.exe)
 L702 exits ... SP integral derivatives will be done elsewhere.
 Leave Link  702 at Wed May 26 19:11:48 2021, MaxMem=   13107200 cpu:       0.0
 (Enter /programs/64bit/g09/g09-gfortran/bin/l703.exe)
 Compute integral first derivatives, UseDBF=F ICtDFT=           0.
 Integral derivatives from FoFDir, PRISM(SPDF).
 Calling FoFJK, ICntrl=      2127 FMM=F ISym2X=0 I1Cent= 0 IOpClX= 0 NMat=1 NMatS=1 NMatT=0.
 FoFCou: FMM=F IPFlag=           0 FMFlag=      100000 FMFlg1=         800
         NFxFlg=           0 DoJE=F BraDBF=F KetDBF=F FulRan=T
         Omega=  0.000000  0.000000  1.000000  0.000000  0.000000 ICntrl=    2127 IOpCl=  0
         NMat0=    1 NMatS0=    1 NMatT0=    0 NMatD0=    1 NMtDS0=    0 NMtDT0=    0
         I1Cent=           0 NGrid=           0.
 Symmetry not used in FoFCou.
 Leave Link  703 at Wed May 26 19:11:50 2021, MaxMem=   13107200 cpu:       1.4
 (Enter /programs/64bit/g09/g09-gfortran/bin/l716.exe)
 Dipole        =-1.79387213D-01-7.44972970D-02 1.05725874D-01
 -------------------------------------------------------------------
 Center     Atomic                   Forces (Hartrees/Bohr)
 Number     Number              X              Y              Z
 -------------------------------------------------------------------
      1        6          -0.073136058   -0.079708434   -0.068116347
      2        6           0.019164301   -0.066888125    0.011489294
      3        1           0.019565021    0.023515884    0.059647197
      4        1           0.028626267    0.065610722    0.007537006
      5        1           0.001309589    0.019223687   -0.023202504
      6        1          -0.006072608   -0.028199740    0.001115827
      7        1          -0.030780361    0.000622656    0.005356377
      8        1           0.041323849    0.065823349    0.006173150
 -------------------------------------------------------------------
 Cartesian Forces:  Max     0.079708434 RMS     0.040716510
 -----------------------------------------------------------------------------------------------
                       Internal Coordinate Forces (Hartree/Bohr or radian)
  Cent   Atom   N1       Length/X         N2         Alpha/Y        N3         Beta/Z          J
 -----------------------------------------------------------------------------------------------
      1  C 
      2  C        1   0.024135(     1)
      3  H        1  -0.050433(     2)      2  -0.084183(     8)
      4  H        1  -0.071533(     3)      2   0.003022(     9)      3  -0.021221(    14)     0
      5  H        1   0.005423(     4)      2   0.046902(    10)      3   0.038870(    15)     0
      6  H        2   0.006118(     5)      1   0.000591(    11)      3   0.000955(    16)     0
      7  H        2  -0.015655(     6)      1   0.016263(    12)      6  -0.055128(    17)     0
      8  H        2   0.025736(     7)      1  -0.148953(    13)      6  -0.001411(    18)     0
 -----------------------------------------------------------------------------------------------
 Internal  Forces:  Max     0.148953365 RMS     0.050534904
 Force constants in Cartesian coordinates: 
                1             2             3             4             5 
      1  0.613717D+00
      2 -0.308128D-01  0.373222D+00
      3 -0.100604D-01  0.108154D-01  0.663890D+00
      4 -0.148079D+00  0.796435D-02  0.222268D-01  0.704279D+00
      5  0.352089D-04 -0.142372D+00  0.131095D-01 -0.842236D-01  0.560802D+00
      6 -0.831366D-02 -0.130284D-01 -0.280617D+00 -0.261260D-02  0.371651D-02
      7 -0.113339D+00  0.816686D-03  0.150663D-01  0.269359D-01 -0.531446D-03
      8  0.993375D-02 -0.825130D-01 -0.156368D-01 -0.821402D-02  0.217450D-01
      9  0.463256D-01  0.271419D-03 -0.247723D+00  0.895194D-02 -0.176622D-03
     10 -0.488849D-01 -0.457314D-01 -0.324183D-02  0.169356D-02  0.158557D-03
     11 -0.261922D-01 -0.118134D+00 -0.102175D-01  0.172217D-03  0.243951D-02
     12 -0.278586D-02 -0.178464D-01 -0.465787D-01 -0.546475D-02 -0.195151D-01
     13 -0.336804D+00  0.674111D-01 -0.239910D-01  0.326100D-02  0.796717D-03
     14  0.409511D-01 -0.742929D-01  0.192946D-02  0.344943D-02  0.572860D-02
     15 -0.334794D-01  0.675956D-02 -0.889706D-01 -0.257140D-01  0.658223D-02
     16  0.362873D-02 -0.800188D-04  0.000000D+00 -0.342379D+00  0.143716D-02
     17 -0.108115D-02  0.424132D-02  0.000000D+00 -0.187137D-01 -0.785674D-01
     18  0.264817D-01 -0.638719D-03  0.000000D+00  0.542572D-01  0.696100D-02
     19  0.594330D-02  0.225938D-02  0.000000D+00 -0.126381D+00  0.820059D-01
     20  0.138958D-02  0.486091D-02  0.000000D+00  0.103436D+00 -0.243978D+00
     21 -0.137094D-01  0.213910D-01  0.000000D+00 -0.194351D-01  0.449719D-01
     22  0.238179D-01 -0.182728D-02  0.000000D+00 -0.119331D+00  0.321501D-03
     23  0.577659D-02  0.349871D-01  0.000000D+00 -0.387055D-02 -0.125798D+00
     24 -0.445857D-02 -0.772388D-02  0.000000D+00 -0.322095D-01 -0.556494D-01
                6             7             8             9            10 
      6  0.810095D+00
      7  0.000000D+00  0.878328D-01
      8  0.000000D+00  0.120070D-02  0.534585D-01
      9  0.000000D+00 -0.548024D-01  0.399043D-03  0.234517D+00
     10  0.000000D+00  0.152733D-02 -0.101574D-01  0.507597D-03  0.383783D-01
     11  0.000000D+00 -0.150887D-02  0.171503D-03 -0.501460D-03  0.298551D-01
     12  0.000000D+00  0.812162D-02  0.233312D-01  0.269916D-02 -0.413247D-03
     13  0.000000D+00 -0.295713D-02  0.310109D-02 -0.982777D-03  0.623727D-02
     14  0.000000D+00  0.229248D-04  0.949355D-02  0.761887D-05  0.264722D-01
     15  0.000000D+00  0.316144D-01 -0.809337D-02  0.105068D-01  0.314748D-02
     16  0.358873D-01  0.000000D+00  0.282833D-05  0.000000D+00  0.000000D+00
     17  0.103148D-01  0.000000D+00  0.158882D-02  0.000000D+00  0.402748D-03
     18 -0.881595D-01  0.000000D+00  0.000000D+00  0.000000D+00  0.000000D+00
     19 -0.723083D-02  0.000000D+00 -0.130200D-02  0.000000D+00 -0.330043D-03
     20  0.314702D-01  0.000000D+00 -0.793554D-03  0.000000D+00 -0.201157D-03
     21 -0.809952D-01  0.000000D+00  0.000000D+00  0.000000D+00  0.000000D+00
     22 -0.177302D-01  0.000000D+00  0.543506D-02  0.000000D+00  0.137773D-02
     23 -0.324732D-01  0.000000D+00 -0.315088D-02  0.000000D+00 -0.798712D-03
     24 -0.360323D+00  0.000000D+00  0.000000D+00  0.000000D+00  0.000000D+00
               11            12            13            14            15 
     11  0.123832D+00
     12  0.117290D-01  0.436059D-01
     13 -0.200146D-02  0.542230D-03  0.330607D+00
     14 -0.849459D-02  0.230135D-02 -0.695031D-01  0.667722D-01
     15 -0.100999D-02  0.273671D-03  0.244315D-01 -0.423843D-02  0.781901D-01
     16  0.000000D+00  0.000000D+00  0.000000D+00  0.000000D+00  0.000000D+00
     17 -0.124772D-03  0.000000D+00 -0.132001D-03 -0.534941D-03  0.000000D+00
     18  0.000000D+00  0.000000D+00  0.000000D+00  0.000000D+00  0.000000D+00
     19  0.102248D-03  0.000000D+00  0.108172D-03  0.438371D-03  0.000000D+00
     20  0.623187D-04  0.000000D+00  0.659294D-04  0.267182D-03  0.000000D+00
     21  0.000000D+00  0.000000D+00  0.000000D+00  0.000000D+00  0.000000D+00
     22 -0.426821D-03  0.000000D+00 -0.451551D-03 -0.182993D-02  0.000000D+00
     23  0.247442D-03  0.000000D+00  0.261778D-03  0.106087D-02  0.000000D+00
     24  0.000000D+00  0.000000D+00  0.000000D+00  0.000000D+00  0.000000D+00
               16            17            18            19            20 
     16  0.344732D+00
     17 -0.727706D-03  0.479224D-01
     18 -0.368404D-01 -0.138839D-02  0.810914D-01
     19 -0.937000D-03  0.299080D-01 -0.722272D-02  0.112744D+00
     20 -0.528125D-03  0.168856D-01 -0.407134D-02 -0.112406D+00  0.228281D+00
     21  0.263809D-03 -0.824554D-02  0.203126D-02  0.153928D-01 -0.275827D-01
     22 -0.504545D-02 -0.965620D-02 -0.366757D-01  0.885225D-02  0.824352D-02
     23 -0.102966D-03  0.858899D-02 -0.862548D-03 -0.100630D-02 -0.558637D-02
     24  0.689339D-03 -0.680919D-03  0.503681D-02 -0.939227D-03  0.183797D-03
               21            22            23            24 
     21  0.743206D-01
     22  0.174879D-01  0.907798D-01
     23 -0.305347D-01 -0.259843D-03  0.896505D-01
     24  0.464338D-02  0.369179D-01  0.638704D-01  0.350643D+00
 Force constants in internal coordinates: 
                1             2             3             4             5 
      1  0.280617D+00
      2  0.000000D+00  0.252730D+00
      3  0.000000D+00  0.000000D+00  0.134577D+00
      4  0.000000D+00  0.000000D+00  0.000000D+00  0.350047D+00
      5  0.000000D+00  0.000000D+00  0.000000D+00  0.000000D+00  0.349784D+00
      6  0.000000D+00  0.000000D+00  0.000000D+00  0.000000D+00  0.000000D+00
      7  0.000000D+00  0.000000D+00  0.000000D+00  0.000000D+00  0.000000D+00
      8  0.000000D+00  0.000000D+00  0.000000D+00  0.000000D+00  0.000000D+00
      9  0.000000D+00  0.000000D+00  0.000000D+00  0.000000D+00  0.000000D+00
     10  0.000000D+00  0.000000D+00  0.000000D+00  0.000000D+00  0.000000D+00
     11  0.000000D+00  0.000000D+00  0.000000D+00  0.000000D+00  0.000000D+00
     12  0.000000D+00  0.000000D+00  0.000000D+00  0.000000D+00  0.000000D+00
     13  0.000000D+00  0.000000D+00  0.000000D+00  0.000000D+00  0.000000D+00
     14  0.000000D+00  0.000000D+00  0.000000D+00  0.000000D+00  0.000000D+00
     15  0.000000D+00  0.000000D+00  0.000000D+00  0.000000D+00  0.000000D+00
     16  0.000000D+00  0.000000D+00  0.000000D+00  0.000000D+00  0.000000D+00
     17  0.000000D+00  0.000000D+00  0.000000D+00  0.000000D+00  0.000000D+00
     18  0.000000D+00  0.000000D+00  0.000000D+00  0.000000D+00  0.000000D+00
                6             7             8             9            10 
      6  0.301284D+00
      7  0.000000D+00  0.370056D+00
      8  0.000000D+00  0.000000D+00  0.353136D+00
      9  0.000000D+00  0.000000D+00  0.523571D-01  0.307219D+00
     10  0.000000D+00  0.000000D+00  0.154951D+00  0.153519D-02  0.321217D+00
     11  0.000000D+00  0.000000D+00  0.000000D+00  0.000000D+00  0.000000D+00
     12  0.000000D+00  0.000000D+00  0.000000D+00  0.000000D+00  0.000000D+00
     13  0.000000D+00  0.000000D+00  0.000000D+00  0.000000D+00  0.000000D+00
     14  0.000000D+00  0.000000D+00  0.121041D-01 -0.281048D-01  0.182708D-01
     15  0.000000D+00  0.000000D+00  0.333560D-02 -0.131536D-01 -0.735206D-02
     16  0.000000D+00  0.000000D+00  0.000000D+00  0.000000D+00  0.000000D+00
     17  0.000000D+00  0.000000D+00  0.000000D+00  0.000000D+00  0.000000D+00
     18  0.000000D+00  0.000000D+00  0.000000D+00  0.000000D+00  0.000000D+00
               11            12            13            14            15 
     11  0.321779D+00
     12  0.912988D-02  0.321479D+00
     13  0.832342D-01  0.799984D-01  0.288366D+00
     14  0.000000D+00  0.000000D+00  0.000000D+00  0.207639D+00
     15  0.000000D+00  0.000000D+00  0.000000D+00 -0.156572D+00  0.208008D+00
     16  0.310846D-02 -0.316083D-02 -0.524063D-03  0.690000D-02  0.690000D-02
     17 -0.365379D-01 -0.556835D-02 -0.119384D-01  0.230000D-02  0.230000D-02
     18  0.334937D-01 -0.339677D-01  0.389607D-03  0.230000D-02  0.230000D-02
               16            17            18 
     16  0.718622D-01
     17  0.371815D-01  0.199028D+00
     18 -0.249572D-02 -0.132885D-01  0.241013D-01
 Leave Link  716 at Wed May 26 19:11:50 2021, MaxMem=   13107200 cpu:       0.0
 (Enter /programs/64bit/g09/g09-gfortran/bin/l103.exe)

 GradGradGradGradGradGradGradGradGradGradGradGradGradGradGradGradGradGrad
 Berny optimization.
 Search for a local minimum.
 Step number   1 out of a maximum of    2
 All quantities printed in internal units (Hartrees-Bohrs-Radians)
 Second derivative matrix not updated -- first step.
 The second derivative matrix:
                          d1        a1        t1        d2        a2
           d1           0.28062
           a1           0.00000   0.35314
           t1           0.00000   0.01210   0.20764
           d2           0.00000   0.00000   0.00000   0.25273
           a2          -0.00000   0.05236  -0.02810   0.00000   0.30722
           t2          -0.00000   0.00334  -0.15657   0.00000  -0.01315
           d3           0.00000  -0.00000  -0.00000   0.00000  -0.00000
           d4           0.00000   0.00000   0.00000   0.00000   0.00000
           a3          -0.00000   0.15495   0.01827   0.00000   0.00154
           d5           0.00000   0.00000   0.00000   0.00000   0.00000
           a4          -0.00000   0.00000  -0.00000   0.00000  -0.00000
           t3          -0.00000   0.00000   0.00690   0.00000   0.00000
           d6           0.00000   0.00000  -0.00000   0.00000   0.00000
           a5           0.00000   0.00000  -0.00000   0.00000  -0.00000
           t4          -0.00000   0.00000   0.00230   0.00000   0.00000
           d7          -0.00000   0.00000   0.00000   0.00000  -0.00000
           a6           0.00000   0.00000  -0.00000   0.00000   0.00000
           t5          -0.00000   0.00000   0.00230   0.00000   0.00000
                          t2        d3        d4        a3        d5
           t2           0.20801
           d3           0.00000   0.13458
           d4           0.00000   0.00000   0.35005
           a3          -0.00735   0.00000  -0.00000   0.32122
           d5           0.00000   0.00000   0.00000   0.00000   0.34978
           a4          -0.00000  -0.00000  -0.00000  -0.00000  -0.00000
           t3           0.00690  -0.00000  -0.00000  -0.00000   0.00000
           d6          -0.00000  -0.00000  -0.00000   0.00000   0.00000
           a5          -0.00000   0.00000   0.00000  -0.00000   0.00000
           t4           0.00230   0.00000  -0.00000   0.00000  -0.00000
           d7           0.00000   0.00000  -0.00000   0.00000  -0.00000
           a6          -0.00000  -0.00000   0.00000  -0.00000  -0.00000
           t5           0.00230  -0.00000   0.00000  -0.00000   0.00000
                          a4        t3        d6        a5        t4
           a4           0.32178
           t3           0.00311   0.07186
           d6           0.00000  -0.00000   0.30128
           a5           0.00913  -0.00316   0.00000   0.32148
           t4          -0.03654   0.03718  -0.00000  -0.00557   0.19903
           d7          -0.00000   0.00000   0.00000   0.00000  -0.00000
           a6           0.08323  -0.00052   0.00000   0.08000  -0.01194
           t5           0.03349  -0.00250  -0.00000  -0.03397  -0.01329
                          d7        a6        t5
           d7           0.37006
           a6          -0.00000   0.28837
           t5           0.00000   0.00039   0.02410
     Eigenvalues --- 1000.000001000.000001000.000001000.000001000.00000
     Eigenvalues --- 1000.000001000.000001000.000001000.000001000.00000
     Eigenvalues --- 1000.000001000.000001000.000001000.000001000.00000
     Eigenvalues --- 1000.000001000.000001000.00000
 Angle between quadratic step and forces=  90.00 degrees.
 Linear search not attempted -- first point.
 Variable       Old X    -DE/DX   Delta X   Delta X   Delta X     New X
                                 (Linear)    (Quad)   (Total)
    d1        2.92004   0.02413   0.00000   0.00000   0.00000   2.92004
    a1        2.82073  -0.08418   0.00000   0.00000   0.00000   2.82073
    t1        1.87122  -0.02122   0.00000   0.00000   0.00000   1.87122
    d2        2.25219  -0.05043   0.00000   0.00000   0.00000   2.25219
    a2        1.69201   0.00302   0.00000   0.00000   0.00000   1.69201
    t2       -2.89967   0.03887   0.00000   0.00000   0.00000  -2.89967
    d3        2.69637  -0.07153   0.00000   0.00000   0.00000   2.69637
    d4        2.05667   0.00542   0.00000   0.00000   0.00000   2.05667
    a3        1.66153   0.04690   0.00000   0.00000   0.00000   1.66153
    d5        2.05710   0.00612   0.00000   0.00000   0.00000   2.05710
    a4        1.70705   0.00059   0.00000   0.00000   0.00000   1.70705
    t3        3.13981   0.00095   0.00000   0.00000   0.00000   3.13981
    d6        2.14408  -0.01566   0.00000   0.00000   0.00000   2.14408
    a5        1.70898   0.01626   0.00000   0.00000   0.00000   1.70898
    t4        2.11994  -0.05513   0.00000   0.00000   0.00000   2.11994
    d7        2.02538   0.02574   0.00000   0.00000   0.00000   2.02538
    a6        2.88428  -0.14895   0.00000   0.00000   0.00000   2.88428
    t5       -2.09440  -0.00141   0.00000   0.00000   0.00000  -2.09440
         Item               Value     Threshold  Converged?
 Maximum Force            0.000000     0.000450     YES
 RMS     Force            0.000000     0.000300     YES
 Maximum Displacement     0.000000     0.001800     YES
 RMS     Displacement     0.000000     0.001200     YES
 Predicted change in Energy=-0.000000D+00
 Optimization completed.
    -- Stationary point found.
                       ----------------------------
                       !   Optimized Parameters   !
                       ! (Angstroms and Degrees)  !
 ----------------------                            ----------------------
 !      Name          Value   Derivative information (Atomic Units)     !
 ------------------------------------------------------------------------
 !       d1          1.5452   -DE/DX =    0.0241                        !
 !       a1        161.6162   -DE/DX =   -0.0842                        !
 !       t1        107.213    -DE/DX =   -0.0212                        !
 !       d2          1.1918   -DE/DX =   -0.0504                        !
 !       a2         96.9451   -DE/DX =    0.003                         !
 !       t2       -166.1387   -DE/DX =    0.0389                        !
 !       d3          1.4269   -DE/DX =   -0.0715                        !
 !       d4          1.0883   -DE/DX =    0.0054                        !
 !       a3         95.1989   -DE/DX =    0.0469                        !
 !       d5          1.0886   -DE/DX =    0.0061                        !
 !       a4         97.8066   -DE/DX =    0.0006                        !
 !       t3        179.898    -DE/DX =    0.001                         !
 !       d6          1.1346   -DE/DX =   -0.0157                        !
 !       a5         97.9174   -DE/DX =    0.0163                        !
 !       t4        121.4638   -DE/DX =   -0.0551                        !
 !       d7          1.0718   -DE/DX =    0.0257                        !
 !       a6        165.257    -DE/DX =   -0.149                         !
 !       t5       -120.0002   -DE/DX =   -0.0014                        !
 ------------------------------------------------------------------------
 GradGradGradGradGradGradGradGradGradGradGradGradGradGradGradGradGradGrad

 Leave Link  103 at Wed May 26 19:11:50 2021, MaxMem=   13107200 cpu:       0.0
 (Enter /programs/64bit/g09/g09-gfortran/bin/l9999.exe)
 1\1\GINC-MOLMOD\Force\RB3LYP\6-31+G(d,p)\C2H6\OSPITE\26-May-2021\1\\#p
  b3lyp/6-31+g(d,p) force nosym\\c2h6 molecule\\0,1\C\C,1,d1\H,1,d2,2,a
 1\H,1,d3,2,a2,3,t1,0\H,1,d4,2,a3,3,t2,0\H,2,d5,1,a4,3,t3,0\H,2,d6,1,a5
 ,6,t4,0\H,2,d7,1,a6,6,t5,0\\d1=1.54521706\a1=161.6161966\t1=107.213027
 1\d2=1.19180807\a2=96.94509002\t2=-166.13869699\d3=1.42685728\d4=1.088
 3443\a3=95.19886238\d5=1.08857023\a4=97.80661614\t3=179.89800556\d6=1.
 13459939\a5=97.91735905\t4=121.46379706\d7=1.07178386\a6=165.2570262\t
 5=-120.00023178\\Version=EM64L-G09RevA.02\HF=-79.6595848\RMSD=2.105e-0
 9\RMSF=4.072e-02\Dipole=-0.1793872,-0.0744973,0.1057259\Quadrupole=-0.
 1341587,-1.4013274,1.5354861,-0.5917786,-0.4608849,-0.2693223\PG=C01 [
 X(C2H6)]\\@


 Until you make peace with who you are,
 you'll never be content with what you have.
                           -- Doris Mortman
 Job cpu time:  0 days  0 hours  0 minutes 10.6 seconds.
 File lengths (MBytes):  RWF=      5 Int=      0 D2E=      0 Chk=      1 Scr=      1
 Normal termination of Gaussian 09 at Wed May 26 19:11:50 2021.
