 Entering Gaussian System, Link 0=g09
 Input=c2h6_057.com
 Output=c2h6_057.log
 Initial command:
 /programs/64bit/g09/g09-gfortran/bin/l1.exe /data/scratch/Gau-7300.inp -scrdir=/data/scratch/
 Entering Link 1 = /programs/64bit/g09/g09-gfortran/bin/l1.exe PID=      7301.
  
 Copyright (c) 1988,1990,1992,1993,1995,1998,2003,2009, Gaussian, Inc.
                  All Rights Reserved.
  
 This is part of the Gaussian(R) 09 program.  It is based on
 the Gaussian(R) 03 system (copyright 2003, Gaussian, Inc.),
 the Gaussian(R) 98 system (copyright 1998, Gaussian, Inc.),
 the Gaussian(R) 94 system (copyright 1995, Gaussian, Inc.),
 the Gaussian 92(TM) system (copyright 1992, Gaussian, Inc.),
 the Gaussian 90(TM) system (copyright 1990, Gaussian, Inc.),
 the Gaussian 88(TM) system (copyright 1988, Gaussian, Inc.),
 the Gaussian 86(TM) system (copyright 1986, Carnegie Mellon
 University), and the Gaussian 82(TM) system (copyright 1983,
 Carnegie Mellon University). Gaussian is a federally registered
 trademark of Gaussian, Inc.
  
 This software contains proprietary and confidential information,
 including trade secrets, belonging to Gaussian, Inc.
  
 This software is provided under written license and may be
 used, copied, transmitted, or stored only in accord with that
 written license.
  
 The following legend is applicable only to US Government
 contracts under FAR:
  
                    RESTRICTED RIGHTS LEGEND
  
 Use, reproduction and disclosure by the US Government is
 subject to restrictions as set forth in subparagraphs (a)
 and (c) of the Commercial Computer Software - Restricted
 Rights clause in FAR 52.227-19.
  
 Gaussian, Inc.
 340 Quinnipiac St., Bldg. 40, Wallingford CT 06492
  
  
 ---------------------------------------------------------------
 Warning -- This program may not be used in any manner that
 competes with the business of Gaussian, Inc. or will provide
 assistance to any competitor of Gaussian, Inc.  The licensee
 of this program is prohibited from giving any competitor of
 Gaussian, Inc. access to this program.  By using this program,
 the user acknowledges that Gaussian, Inc. is engaged in the
 business of creating and licensing software in the field of
 computational chemistry and represents and warrants to the
 licensee that it is not a competitor of Gaussian, Inc. and that
 it will not use this program in any manner prohibited above.
 ---------------------------------------------------------------
  

 Cite this work as:
 Gaussian 09, Revision A.02,
 M. J. Frisch, G. W. Trucks, H. B. Schlegel, G. E. Scuseria, 
 M. A. Robb, J. R. Cheeseman, G. Scalmani, V. Barone, B. Mennucci, 
 G. A. Petersson, H. Nakatsuji, M. Caricato, X. Li, H. P. Hratchian, 
 A. F. Izmaylov, J. Bloino, G. Zheng, J. L. Sonnenberg, M. Hada, 
 M. Ehara, K. Toyota, R. Fukuda, J. Hasegawa, M. Ishida, T. Nakajima, 
 Y. Honda, O. Kitao, H. Nakai, T. Vreven, J. A. Montgomery, Jr., 
 J. E. Peralta, F. Ogliaro, M. Bearpark, J. J. Heyd, E. Brothers, 
 K. N. Kudin, V. N. Staroverov, R. Kobayashi, J. Normand, 
 K. Raghavachari, A. Rendell, J. C. Burant, S. S. Iyengar, J. Tomasi, 
 M. Cossi, N. Rega, J. M. Millam, M. Klene, J. E. Knox, J. B. Cross, 
 V. Bakken, C. Adamo, J. Jaramillo, R. Gomperts, R. E. Stratmann, 
 O. Yazyev, A. J. Austin, R. Cammi, C. Pomelli, J. W. Ochterski, 
 R. L. Martin, K. Morokuma, V. G. Zakrzewski, G. A. Voth, 
 P. Salvador, J. J. Dannenberg, S. Dapprich, A. D. Daniels, 
 O. Farkas, J. B. Foresman, J. V. Ortiz, J. Cioslowski, 
 and D. J. Fox, Gaussian, Inc., Wallingford CT, 2009.
 
 ******************************************
 Gaussian 09:  EM64L-G09RevA.02 11-Jun-2009
                26-May-2021 
 ******************************************
 %chk=c2h6_057.chk
 %mem=100MB
 --------------------------------
 #p b3lyp/6-31+g(d,p) force nosym
 --------------------------------
 1/10=7,30=1,38=1/1,3;
 2/12=2,15=1,17=6,18=5,40=1/2;
 3/5=1,6=6,7=111,11=2,16=1,25=1,30=1,71=1,74=-5/1,2,3;
 4//1;
 5/5=2,38=5/2;
 6/7=2,8=2,9=2,10=2,28=1/1;
 7/29=1,30=1/1,2,3,16;
 1/10=7,30=1/3;
 99//99;
 Leave Link    1 at Wed May 26 19:17:23 2021, MaxMem=   13107200 cpu:       0.0
 (Enter /programs/64bit/g09/g09-gfortran/bin/l101.exe)
 -------------
 c2h6 molecule
 -------------
 Symbolic Z-matrix:
 Charge =  0 Multiplicity = 1
 C1
 C2                   1    d1
 H3                   1    d2       2    a1
 H4                   1    d3       2    a2       3    t1       0
 H5                   1    d4       2    a3       3    t2       0
 H6                   2    d5       1    a4       3    t3       0
 H7                   2    d6       1    a5       6    t4       0
 H8                   2    d7       1    a6       6    t5       0
       Variables:
       Constants:
  d1                    1.53997                  
  a1                  111.2537                   
  t1                  107.33894                  
  d2                    1.09343                  
  a2                  104.57256                  
  t2                 -142.015                    
  d3                    1.1053                   
  d4                    1.08985                  
  a3                  113.83419                  
  d5                    1.09746                  
  a4                  106.05826                  
  t3                  178.90841                  
  d6                    1.09619                  
  a5                  114.63591                  
  t4                  113.57742                  
  d7                    1.09403                  
  a6                  114.26435                  
  t5                 -123.16697                  
 
 NAtoms=      8 NQM=      8 NQMF=      0 NMic=      0 NMicF=      0 NTot=      8.
                    Isotopes and Nuclear Properties:
 (Nuclear quadrupole moments (NQMom) in fm**2, nuclear magnetic moments (NMagM)
  in nuclear magnetons)

  Atom         1           2           3           4           5           6           7           8
 IAtWgt=          12          12           1           1           1           1           1           1
 AtmWgt=  12.0000000  12.0000000   1.0078250   1.0078250   1.0078250   1.0078250   1.0078250   1.0078250
 NucSpn=           0           0           1           1           1           1           1           1
 AtZEff=   0.0000000   0.0000000   0.0000000   0.0000000   0.0000000   0.0000000   0.0000000   0.0000000
 NQMom=    0.0000000   0.0000000   0.0000000   0.0000000   0.0000000   0.0000000   0.0000000   0.0000000
 NMagM=    0.0000000   0.0000000   2.7928460   2.7928460   2.7928460   2.7928460   2.7928460   2.7928460
 Leave Link  101 at Wed May 26 19:17:23 2021, MaxMem=   13107200 cpu:       0.0
 (Enter /programs/64bit/g09/g09-gfortran/bin/l103.exe)

 GradGradGradGradGradGradGradGradGradGradGradGradGradGradGradGradGradGrad
 Berny optimization.
 Initialization pass.
                       ----------------------------
                       !    Initial Parameters    !
                       ! (Angstroms and Degrees)  !
 ----------------------                            ----------------------
 !      Name          Value   Derivative information (Atomic Units)     !
 ------------------------------------------------------------------------
 !       d1          1.54     Frozen                                    !
 !       a1        111.2537   Frozen                                    !
 !       t1        107.3389   Frozen                                    !
 !       d2          1.0934   Frozen                                    !
 !       a2        104.5726   Frozen                                    !
 !       t2       -142.015    Frozen                                    !
 !       d3          1.1053   Frozen                                    !
 !       d4          1.0899   Frozen                                    !
 !       a3        113.8342   Frozen                                    !
 !       d5          1.0975   Frozen                                    !
 !       a4        106.0583   Frozen                                    !
 !       t3        178.9084   Frozen                                    !
 !       d6          1.0962   Frozen                                    !
 !       a5        114.6359   Frozen                                    !
 !       t4        113.5774   Frozen                                    !
 !       d7          1.094    Frozen                                    !
 !       a6        114.2643   Frozen                                    !
 !       t5       -123.167    Frozen                                    !
 ------------------------------------------------------------------------
 Trust Radius=3.00D-01 FncErr=1.00D-07 GrdErr=1.00D-07
 Number of steps in this run=   2 maximum allowed number of steps=   2.
 GradGradGradGradGradGradGradGradGradGradGradGradGradGradGradGradGradGrad

 Leave Link  103 at Wed May 26 19:17:23 2021, MaxMem=   13107200 cpu:       0.0
 (Enter /programs/64bit/g09/g09-gfortran/bin/l202.exe)
                          Input orientation:                          
 ---------------------------------------------------------------------
 Center     Atomic      Atomic             Coordinates (Angstroms)
 Number     Number       Type             X           Y           Z
 ---------------------------------------------------------------------
      1          6           0        0.000000    0.000000    0.000000
      2          6           0        0.000000    0.000000    1.539973
      3          1           0        1.019057    0.000000   -0.396365
      4          1           0       -0.318807   -1.021128   -0.278099
      5          1           0       -0.785734    0.613552   -0.440399
      6          1           0       -1.054442    0.020091    1.843545
      7          1           0        0.381082   -0.920656    1.996920
      8          1           0        0.561454    0.824340    1.989560
 ---------------------------------------------------------------------
                    Distance matrix (angstroms):
                    1          2          3          4          5
     1  C    0.000000
     2  C    1.539973   0.000000
     3  H    1.093427   2.188123   0.000000
     4  H    1.105296   2.109438   1.687178   0.000000
     5  H    1.089851   2.217137   1.906740   1.707788   0.000000
     6  H    2.123890   1.097455   3.052376   2.475211   2.375037
     7  H    2.231708   1.096189   2.642430   2.382363   3.107375
     8  H    2.225560   1.094027   2.565459   3.053341   2.786405
                    6          7          8
     6  H    0.000000
     7  H    1.723153   0.000000
     8  H    1.810871   1.754309   0.000000
 Symmetry turned off by external request.
 Stoichiometry    C2H6
 Framework group  C1[X(C2H6)]
 Deg. of freedom    18
 Full point group                 C1      NOp   1
 Rotational constants (GHZ):     80.0541709     19.9665299     19.6411330
 Leave Link  202 at Wed May 26 19:17:23 2021, MaxMem=   13107200 cpu:       0.0
 (Enter /programs/64bit/g09/g09-gfortran/bin/l301.exe)
 Standard basis: 6-31+G(d,p) (6D, 7F)
 Ernie: Thresh=  0.10000D-02 Tol=  0.10000D-05 Strict=F.
 Integral buffers will be    131072 words long.
 Raffenetti 2 integral format.
 Two-electron integral symmetry is turned off.
    68 basis functions,   106 primitive gaussians,    68 cartesian basis functions
     9 alpha electrons        9 beta electrons
       nuclear repulsion energy        42.0586868711 Hartrees.
 IExCor=  402 DFT=T Ex+Corr=B3LYP ExCW=0 ScaHFX=  0.200000
 ScaDFX=  0.800000  0.720000  1.000000  0.810000 ScalE2=  1.000000  1.000000
 IRadAn=      0 IRanWt=     -1 IRanGd=            0 ICorTp=0
 NAtoms=    8 NActive=    8 NUniq=    8 SFac= 7.50D-01 NAtFMM=   80 NAOKFM=F Big=F
 Leave Link  301 at Wed May 26 19:17:23 2021, MaxMem=   13107200 cpu:       0.0
 (Enter /programs/64bit/g09/g09-gfortran/bin/l302.exe)
 NPDir=0 NMtPBC=     1 NCelOv=     1 NCel=       1 NClECP=     1 NCelD=      1
         NCelK=      1 NCelE2=     1 NClLst=     1 CellRange=     0.0.
 One-electron integrals computed using PRISM.
 NBasis=    68 RedAO= T  NBF=    68
 NBsUse=    68 1.00D-06 NBFU=    68
 Precomputing XC quadrature grid using
 IXCGrd= 2 IRadAn=           0 IRanWt=          -1 IRanGd=           0 AccXCQ= 1.00D-10.
 NRdTot=     510 NPtTot=       65100 NUsed=       68787 NTot=       68819
 NSgBfM=    68    68    68    68    68 NAtAll=     8     8.
 Leave Link  302 at Wed May 26 19:17:23 2021, MaxMem=   13107200 cpu:       0.1
 (Enter /programs/64bit/g09/g09-gfortran/bin/l303.exe)
 DipDrv:  MaxL=1.
 Leave Link  303 at Wed May 26 19:17:23 2021, MaxMem=   13107200 cpu:       0.0
 (Enter /programs/64bit/g09/g09-gfortran/bin/l401.exe)
 Harris functional with IExCor=  402 diagonalized for initial guess.
 ExpMin= 4.38D-02 ExpMax= 3.05D+03 ExpMxC= 4.57D+02 IAcc=2 IRadAn=         0 AccDes= 0.00D+00
 HarFok:  IExCor=  402 AccDes= 0.00D+00 IRadAn=         0 IDoV= 1
 ScaDFX=  1.000000  1.000000  1.000000  1.000000
 FoFCou: FMM=F IPFlag=           0 FMFlag=      100000 FMFlg1=           0
         NFxFlg=           0 DoJE=T BraDBF=F KetDBF=T FulRan=T
         Omega=  0.000000  0.000000  1.000000  0.000000  0.000000 ICntrl=     500 IOpCl=  0
         NMat0=    1 NMatS0=    1 NMatT0=    0 NMatD0=    1 NMtDS0=    0 NMtDT0=    0
         I1Cent=           4 NGrid=           0.
 Symmetry not used in FoFCou.
 Harris En= -79.8884315293333    
 Leave Link  401 at Wed May 26 19:17:24 2021, MaxMem=   13107200 cpu:       0.6
 (Enter /programs/64bit/g09/g09-gfortran/bin/l502.exe)
 Closed shell SCF:
 Requested convergence on RMS density matrix=1.00D-08 within 128 cycles.
 Requested convergence on MAX density matrix=1.00D-06.
 Requested convergence on             energy=1.00D-06.
 No special actions if energy rises.
 Using DIIS extrapolation, IDIIS=  1040.
 Two-electron integral symmetry not used.
        68702 words used for storage of precomputed grid.
 Keep R1 ints in memory in canonical form, NReq=3743087.
 IEnd=      101552 IEndB=      101552 NGot=    13107200 MDV=    10273922
 LenX=    10273922 LenY=    10268857
 Symmetry not used in FoFDir.
 MinBra= 0 MaxBra= 2 Meth= 1.
 IRaf=       0 NMat=   1 IRICut=       1 DoRegI=T DoRafI=F ISym2E= 0 JSym2E=0.

 Cycle   1  Pass 1  IDiag  1:
 E= -79.7013286867192    
 DIIS: error= 3.99D-02 at cycle   1 NSaved=   1.
 NSaved= 1 IEnMin= 1 EnMin= -79.7013286867192     IErMin= 1 ErrMin= 3.99D-02
 ErrMax= 3.99D-02 EMaxC= 1.00D-01 BMatC= 1.15D-01 BMatP= 1.15D-01
 IDIUse=3 WtCom= 6.01D-01 WtEn= 3.99D-01
 Coeff-Com:  0.100D+01
 Coeff-En:   0.100D+01
 Coeff:      0.100D+01
 Gap=     0.266 Goal=   None    Shift=    0.000
 GapD=    0.266 DampG=1.000 DampE=0.500 DampFc=0.5000 IDamp=-1.
 Damping current iteration by 5.00D-01
 RMSDP=9.71D-03 MaxDP=1.43D-01              OVMax= 2.03D-01

 Cycle   2  Pass 1  IDiag  1:
 E= -79.7551337983603     Delta-E=       -0.053805111641 Rises=F Damp=T
 DIIS: error= 1.13D-02 at cycle   2 NSaved=   2.
 NSaved= 2 IEnMin= 2 EnMin= -79.7551337983603     IErMin= 2 ErrMin= 1.13D-02
 ErrMax= 1.13D-02 EMaxC= 1.00D-01 BMatC= 4.75D-03 BMatP= 1.15D-01
 IDIUse=3 WtCom= 8.87D-01 WtEn= 1.13D-01
 Coeff-Com:  0.112D+00 0.888D+00
 Coeff-En:   0.192D+00 0.808D+00
 Coeff:      0.121D+00 0.879D+00
 Gap=     0.376 Goal=   None    Shift=    0.000
 RMSDP=1.35D-03 MaxDP=1.12D-02 DE=-5.38D-02 OVMax= 1.18D-01

 Cycle   3  Pass 1  IDiag  1:
 E= -79.8316906127566     Delta-E=       -0.076556814396 Rises=F Damp=F
 DIIS: error= 1.77D-03 at cycle   3 NSaved=   3.
 NSaved= 3 IEnMin= 3 EnMin= -79.8316906127566     IErMin= 3 ErrMin= 1.77D-03
 ErrMax= 1.77D-03 EMaxC= 1.00D-01 BMatC= 1.86D-04 BMatP= 4.75D-03
 IDIUse=3 WtCom= 9.82D-01 WtEn= 1.77D-02
 Coeff-Com:  0.844D-02 0.122D+00 0.869D+00
 Coeff-En:   0.000D+00 0.000D+00 0.100D+01
 Coeff:      0.830D-02 0.120D+00 0.872D+00
 Gap=     0.348 Goal=   None    Shift=    0.000
 RMSDP=2.29D-04 MaxDP=2.11D-03 DE=-7.66D-02 OVMax= 4.59D-03

 Cycle   4  Pass 1  IDiag  1:
 E= -79.8318544015652     Delta-E=       -0.000163788809 Rises=F Damp=F
 DIIS: error= 4.08D-04 at cycle   4 NSaved=   4.
 NSaved= 4 IEnMin= 4 EnMin= -79.8318544015652     IErMin= 4 ErrMin= 4.08D-04
 ErrMax= 4.08D-04 EMaxC= 1.00D-01 BMatC= 1.17D-05 BMatP= 1.86D-04
 IDIUse=3 WtCom= 9.96D-01 WtEn= 4.08D-03
 Coeff-Com: -0.506D-03-0.487D-02 0.190D+00 0.816D+00
 Coeff-En:   0.000D+00 0.000D+00 0.000D+00 0.100D+01
 Coeff:     -0.504D-03-0.485D-02 0.189D+00 0.816D+00
 Gap=     0.348 Goal=   None    Shift=    0.000
 RMSDP=5.08D-05 MaxDP=4.37D-04 DE=-1.64D-04 OVMax= 1.13D-03

 Cycle   5  Pass 1  IDiag  1:
 E= -79.8318657625231     Delta-E=       -0.000011360958 Rises=F Damp=F
 DIIS: error= 4.47D-05 at cycle   5 NSaved=   5.
 NSaved= 5 IEnMin= 5 EnMin= -79.8318657625231     IErMin= 5 ErrMin= 4.47D-05
 ErrMax= 4.47D-05 EMaxC= 1.00D-01 BMatC= 1.62D-07 BMatP= 1.17D-05
 IDIUse=1 WtCom= 1.00D+00 WtEn= 0.00D+00
 Coeff-Com:  0.116D-03-0.206D-02 0.512D-01 0.237D+00 0.714D+00
 Coeff:      0.116D-03-0.206D-02 0.512D-01 0.237D+00 0.714D+00
 Gap=     0.348 Goal=   None    Shift=    0.000
 RMSDP=7.41D-06 MaxDP=1.16D-04 DE=-1.14D-05 OVMax= 1.61D-04

 Cycle   6  Pass 1  IDiag  1:
 E= -79.8318659052933     Delta-E=       -0.000000142770 Rises=F Damp=F
 DIIS: error= 2.69D-05 at cycle   6 NSaved=   6.
 NSaved= 6 IEnMin= 6 EnMin= -79.8318659052933     IErMin= 6 ErrMin= 2.69D-05
 ErrMax= 2.69D-05 EMaxC= 1.00D-01 BMatC= 3.08D-08 BMatP= 1.62D-07
 IDIUse=1 WtCom= 1.00D+00 WtEn= 0.00D+00
 Coeff-Com:  0.180D-03-0.520D-03 0.439D-02 0.264D-01 0.316D+00 0.653D+00
 Coeff:      0.180D-03-0.520D-03 0.439D-02 0.264D-01 0.316D+00 0.653D+00
 Gap=     0.348 Goal=   None    Shift=    0.000
 RMSDP=2.31D-06 MaxDP=5.16D-05 DE=-1.43D-07 OVMax= 6.11D-05

 Cycle   7  Pass 1  IDiag  1:
 E= -79.8318659341313     Delta-E=       -0.000000028838 Rises=F Damp=F
 DIIS: error= 5.43D-06 at cycle   7 NSaved=   7.
 NSaved= 7 IEnMin= 7 EnMin= -79.8318659341313     IErMin= 7 ErrMin= 5.43D-06
 ErrMax= 5.43D-06 EMaxC= 1.00D-01 BMatC= 1.68D-09 BMatP= 3.08D-08
 IDIUse=1 WtCom= 1.00D+00 WtEn= 0.00D+00
 Coeff-Com:  0.749D-04-0.880D-04-0.186D-02-0.597D-02 0.799D-01 0.271D+00
 Coeff-Com:  0.657D+00
 Coeff:      0.749D-04-0.880D-04-0.186D-02-0.597D-02 0.799D-01 0.271D+00
 Coeff:      0.657D+00
 Gap=     0.348 Goal=   None    Shift=    0.000
 RMSDP=6.25D-07 MaxDP=9.11D-06 DE=-2.88D-08 OVMax= 1.35D-05

 Cycle   8  Pass 1  IDiag  1:
 E= -79.8318659358771     Delta-E=       -0.000000001746 Rises=F Damp=F
 DIIS: error= 1.85D-07 at cycle   8 NSaved=   8.
 NSaved= 8 IEnMin= 8 EnMin= -79.8318659358771     IErMin= 8 ErrMin= 1.85D-07
 ErrMax= 1.85D-07 EMaxC= 1.00D-01 BMatC= 4.02D-12 BMatP= 1.68D-09
 IDIUse=1 WtCom= 1.00D+00 WtEn= 0.00D+00
 Coeff-Com:  0.177D-06 0.104D-06-0.190D-03-0.739D-03 0.719D-03 0.979D-02
 Coeff-Com:  0.578D-01 0.933D+00
 Coeff:      0.177D-06 0.104D-06-0.190D-03-0.739D-03 0.719D-03 0.979D-02
 Coeff:      0.578D-01 0.933D+00
 Gap=     0.348 Goal=   None    Shift=    0.000
 RMSDP=4.11D-08 MaxDP=4.80D-07 DE=-1.75D-09 OVMax= 7.12D-07

 Cycle   9  Pass 1  IDiag  1:
 E= -79.8318659358817     Delta-E=       -0.000000000005 Rises=F Damp=F
 DIIS: error= 2.59D-08 at cycle   9 NSaved=   9.
 NSaved= 9 IEnMin= 9 EnMin= -79.8318659358817     IErMin= 9 ErrMin= 2.59D-08
 ErrMax= 2.59D-08 EMaxC= 1.00D-01 BMatC= 6.58D-14 BMatP= 4.02D-12
 IDIUse=1 WtCom= 1.00D+00 WtEn= 0.00D+00
 Coeff-Com: -0.884D-06 0.721D-06-0.135D-04-0.686D-04-0.751D-03-0.109D-02
 Coeff-Com:  0.397D-02 0.165D+00 0.833D+00
 Coeff:     -0.884D-06 0.721D-06-0.135D-04-0.686D-04-0.751D-03-0.109D-02
 Coeff:      0.397D-02 0.165D+00 0.833D+00
 Gap=     0.348 Goal=   None    Shift=    0.000
 RMSDP=5.29D-09 MaxDP=6.30D-08 DE=-4.66D-12 OVMax= 9.02D-08

 SCF Done:  E(RB3LYP) =  -79.8318659359     A.U. after    9 cycles
             Convg  =    0.5293D-08             -V/T =  2.0110
 KE= 7.896217994554D+01 PE=-2.678312165015D+02 EE= 6.697848374901D+01
 Leave Link  502 at Wed May 26 19:17:29 2021, MaxMem=   13107200 cpu:       5.0
 (Enter /programs/64bit/g09/g09-gfortran/bin/l601.exe)
 Copying SCF densities to generalized density rwf, IOpCl= 0 IROHF=0.

 **********************************************************************

            Population analysis using the SCF density.

 **********************************************************************

 Alpha  occ. eigenvalues --  -10.17938 -10.17802  -0.75344  -0.61759  -0.44654
 Alpha  occ. eigenvalues --   -0.42655  -0.37116  -0.34719  -0.33104
 Alpha virt. eigenvalues --    0.01684   0.03012   0.05167   0.05537   0.08005
 Alpha virt. eigenvalues --    0.08818   0.09099   0.14252   0.15023   0.20003
 Alpha virt. eigenvalues --    0.20659   0.23919   0.25217   0.29312   0.32884
 Alpha virt. eigenvalues --    0.62098   0.64222   0.64846   0.67299   0.68312
 Alpha virt. eigenvalues --    0.69935   0.88665   0.92033   0.94267   0.99911
 Alpha virt. eigenvalues --    1.01289   1.09832   1.10232   1.30878   1.34161
 Alpha virt. eigenvalues --    1.46519   1.65699   1.70346   1.88079   1.93136
 Alpha virt. eigenvalues --    2.03001   2.08760   2.11098   2.17016   2.17864
 Alpha virt. eigenvalues --    2.24856   2.28938   2.37856   2.45666   2.53277
 Alpha virt. eigenvalues --    2.66933   2.73350   2.76669   2.82278   2.85662
 Alpha virt. eigenvalues --    2.94092   3.21699   3.29537   3.37642   3.41085
 Alpha virt. eigenvalues --    3.48441   3.55215   4.34054   4.58756
          Condensed to atoms (all electrons):
              1          2          3          4          5          6
     1  C    5.098401   0.258905   0.398897   0.411087   0.409053  -0.048469
     2  C    0.258905   5.106559  -0.039591  -0.061500  -0.042605   0.402616
     3  H    0.398897  -0.039591   0.547439  -0.037594  -0.016662   0.004715
     4  H    0.411087  -0.061500  -0.037594   0.588601  -0.036657  -0.003021
     5  H    0.409053  -0.042605  -0.016662  -0.036657   0.537850  -0.006672
     6  H   -0.048469   0.402616   0.004715  -0.003021  -0.006672   0.566771
     7  H   -0.043718   0.408317  -0.000991  -0.008719   0.004033  -0.033271
     8  H   -0.036153   0.397164  -0.005404   0.005062  -0.001512  -0.024352
              7          8
     1  C   -0.043718  -0.036153
     2  C    0.408317   0.397164
     3  H   -0.000991  -0.005404
     4  H   -0.008719   0.005062
     5  H    0.004033  -0.001512
     6  H   -0.033271  -0.024352
     7  H    0.562067  -0.032701
     8  H   -0.032701   0.551796
 Mulliken atomic charges:
              1
     1  C   -0.448003
     2  C   -0.429865
     3  H    0.149191
     4  H    0.142741
     5  H    0.153173
     6  H    0.141683
     7  H    0.144983
     8  H    0.146099
 Sum of Mulliken atomic charges =  -0.00000
 Mulliken charges with hydrogens summed into heavy atoms:
              1
     1  C   -0.002899
     2  C    0.002899
 Sum of Mulliken charges with hydrogens summed into heavy atoms =  -0.00000
 Electronic spatial extent (au):  <R**2>=            149.4815
 Charge=             -0.0000 electrons
 Dipole moment (field-independent basis, Debye):
    X=             -0.0600    Y=             -0.1580    Z=             -0.0069  Tot=              0.1692
 Quadrupole moment (field-independent basis, Debye-Ang):
   XX=            -14.7584   YY=            -15.4113   ZZ=            -15.8469
   XY=             -0.1431   XZ=              0.1729   YZ=             -0.1489
 Traceless Quadrupole moment (field-independent basis, Debye-Ang):
   XX=              0.5805   YY=             -0.0724   ZZ=             -0.5080
   XY=             -0.1431   XZ=              0.1729   YZ=             -0.1489
 Octapole moment (field-independent basis, Debye-Ang**2):
  XXX=              0.2643  YYY=              0.7007  ZZZ=            -36.6336  XYY=              0.2640
  XXY=              0.6891  XXZ=            -11.9220  XZZ=              0.5778  YZZ=              0.0412
  YYZ=            -11.5658  XYZ=              0.4311
 Hexadecapole moment (field-independent basis, Debye-Ang**3):
 XXXX=            -31.3583 YYYY=            -31.3464 ZZZZ=           -155.7563 XXXY=             -0.2384
 XXXZ=             -0.8120 YYYX=              0.1603 YYYZ=              0.0316 ZZZX=              1.6730
 ZZZY=             -0.6944 XXYY=            -10.6478 XXZZ=            -30.1456 YYZZ=            -29.7976
 XXYZ=              0.1583 YYXZ=              1.1885 ZZXY=              0.4621
 N-N= 4.205868687106D+01 E-N=-2.678312160384D+02  KE= 7.896217994554D+01
 No NMR shielding tensors so no spin-rotation constants.
 Leave Link  601 at Wed May 26 19:17:29 2021, MaxMem=   13107200 cpu:       0.0
 (Enter /programs/64bit/g09/g09-gfortran/bin/l701.exe)
 Compute integral first derivatives.
 ... and contract with generalized density number  0.
 Leave Link  701 at Wed May 26 19:17:29 2021, MaxMem=   13107200 cpu:       0.0
 (Enter /programs/64bit/g09/g09-gfortran/bin/l702.exe)
 L702 exits ... SP integral derivatives will be done elsewhere.
 Leave Link  702 at Wed May 26 19:17:29 2021, MaxMem=   13107200 cpu:       0.0
 (Enter /programs/64bit/g09/g09-gfortran/bin/l703.exe)
 Compute integral first derivatives, UseDBF=F ICtDFT=           0.
 Integral derivatives from FoFDir, PRISM(SPDF).
 Calling FoFJK, ICntrl=      2127 FMM=F ISym2X=0 I1Cent= 0 IOpClX= 0 NMat=1 NMatS=1 NMatT=0.
 FoFCou: FMM=F IPFlag=           0 FMFlag=      100000 FMFlg1=         800
         NFxFlg=           0 DoJE=F BraDBF=F KetDBF=F FulRan=T
         Omega=  0.000000  0.000000  1.000000  0.000000  0.000000 ICntrl=    2127 IOpCl=  0
         NMat0=    1 NMatS0=    1 NMatT0=    0 NMatD0=    1 NMtDS0=    0 NMtDT0=    0
         I1Cent=           0 NGrid=           0.
 Symmetry not used in FoFCou.
 Leave Link  703 at Wed May 26 19:17:30 2021, MaxMem=   13107200 cpu:       1.2
 (Enter /programs/64bit/g09/g09-gfortran/bin/l716.exe)
 Dipole        =-2.36007147D-02-6.21750709D-02-2.72775761D-03
 -------------------------------------------------------------------
 Center     Atomic                   Forces (Hartrees/Bohr)
 Number     Number              X              Y              Z
 -------------------------------------------------------------------
      1        6           0.001115963   -0.043896631    0.011386561
      2        6          -0.011093934    0.001000910    0.000574750
      3        1          -0.002924773    0.018377464   -0.007096536
      4        1          -0.002570449    0.001371144   -0.001303804
      5        1           0.012336115    0.013763491   -0.002999965
      6        1           0.002208927    0.007080158    0.006866606
      7        1           0.005427139   -0.001224436   -0.006836615
      8        1          -0.004498987    0.003527900   -0.000590998
 -------------------------------------------------------------------
 Cartesian Forces:  Max     0.043896631 RMS     0.011461083
 -----------------------------------------------------------------------------------------------
                       Internal Coordinate Forces (Hartree/Bohr or radian)
  Cent   Atom   N1       Length/X         N2         Alpha/Y        N3         Beta/Z          J
 -----------------------------------------------------------------------------------------------
      1  C 
      2  C        1   0.000014(     1)
      3  H        1  -0.000153(     2)      2   0.015857(     8)
      4  H        1  -0.000197(     3)      2   0.002921(     9)      3   0.005786(    14)     0
      5  H        1   0.000067(     4)      2   0.006694(    10)      3   0.034739(    15)     0
      6  H        2  -0.000093(     5)      1   0.014875(    11)      3   0.005120(    16)     0
      7  H        2   0.000065(     6)      1  -0.015642(    12)      6   0.008560(    17)     0
      8  H        2   0.000106(     7)      1  -0.001439(    13)      6   0.010751(    18)     0
 -----------------------------------------------------------------------------------------------
 Internal  Forces:  Max     0.034739385 RMS     0.011126193
 Force constants in Cartesian coordinates: 
                1             2             3             4             5 
      1  0.702074D+00
      2 -0.534161D-01  0.586195D+00
      3  0.447249D-02 -0.159441D-01  0.625083D+00
      4 -0.933931D-01  0.288432D-02  0.174133D-02  0.634998D+00
      5  0.287105D-02 -0.881177D-01  0.830611D-02  0.243650D-01  0.630415D+00
      6 -0.234960D-02 -0.166702D-02 -0.285213D+00  0.271558D-01 -0.502539D-02
      7 -0.306355D+00  0.441120D-02  0.857725D-01  0.971533D-02  0.189917D-03
      8  0.150558D-01 -0.733176D-01  0.693632D-02  0.686052D-03  0.245684D-02
      9  0.972890D-01  0.113412D-01 -0.123674D+00  0.249782D-01  0.488277D-03
     10 -0.925507D-01 -0.670276D-01 -0.209656D-01  0.101817D-02  0.184415D-02
     11 -0.680352D-01 -0.291345D+00 -0.614832D-01  0.175549D-02  0.605258D-02
     12 -0.235770D-01 -0.688812D-01 -0.812419D-01 -0.761303D-02 -0.243381D-01
     13 -0.224218D+00  0.112406D+00 -0.710207D-01  0.724860D-02 -0.400669D-02
     14  0.102782D+00 -0.151601D+00  0.621849D-01 -0.443157D-02  0.602594D-02
     15 -0.781845D-01  0.734842D-01 -0.134953D+00 -0.191065D-01  0.155437D-01
     16  0.734934D-02 -0.143825D-03  0.000000D+00 -0.315863D+00  0.373294D-02
     17 -0.372714D-03  0.805684D-03  0.000000D+00  0.149668D-02 -0.713639D-01
     18  0.255522D-01 -0.552891D-03  0.000000D+00  0.825286D-01 -0.478996D-02
     19  0.282198D-02 -0.374556D-02  0.000000D+00 -0.101520D+00  0.724511D-01
     20 -0.350012D-02  0.954959D-02  0.000000D+00  0.759899D-01 -0.260871D+00
     21 -0.940549D-02  0.223642D-01  0.000000D+00 -0.466745D-01  0.101164D+00
     22  0.427158D-02  0.463141D-02  0.000000D+00 -0.142204D+00 -0.101448D+00
     23  0.461548D-02  0.783206D-02  0.000000D+00 -0.102746D+00 -0.224598D+00
     24 -0.137971D-01 -0.201443D-01  0.000000D+00 -0.630099D-01 -0.913485D-01
                6             7             8             9            10 
      6  0.639104D+00
      7  0.000000D+00  0.307307D+00
      8  0.000000D+00 -0.206524D-02  0.540745D-01
      9  0.000000D+00 -0.948409D-01 -0.530975D-02  0.100360D+00
     10  0.000000D+00 -0.414462D-02 -0.311814D-01 -0.106558D-01  0.822662D-01
     11  0.000000D+00  0.747842D-03  0.581128D-02  0.192271D-02  0.718262D-01
     12  0.000000D+00  0.200538D-02  0.144078D-01  0.515583D-02  0.214470D-01
     13  0.000000D+00 -0.652291D-02  0.175573D-01 -0.167704D-01  0.134587D-01
     14  0.000000D+00 -0.328371D-02  0.109752D-01 -0.844243D-02  0.245387D-01
     15  0.000000D+00  0.706302D-02 -0.160344D-01  0.181591D-01  0.101745D-01
     16  0.695743D-01  0.000000D+00  0.117732D-04  0.000000D+00  0.107058D-04
     17 -0.386520D-02  0.000000D+00  0.617883D-03  0.000000D+00  0.561862D-03
     18 -0.977326D-01  0.000000D+00  0.000000D+00  0.000000D+00  0.000000D+00
     19 -0.402160D-01  0.000000D+00 -0.604378D-03  0.000000D+00 -0.549581D-03
     20  0.900656D-01  0.000000D+00 -0.250167D-03  0.000000D+00 -0.227485D-03
     21 -0.126068D+00  0.000000D+00  0.000000D+00  0.000000D+00  0.000000D+00
     22 -0.541644D-01  0.000000D+00  0.540097D-03  0.000000D+00  0.491128D-03
     23 -0.795080D-01  0.000000D+00 -0.367857D-03  0.000000D+00 -0.334505D-03
     24 -0.130090D+00  0.000000D+00  0.000000D+00  0.000000D+00  0.000000D+00
               11            12            13            14            15 
     11  0.291058D+00
     12  0.644329D-01  0.698593D-01
     13 -0.630926D-02  0.773762D-02  0.210000D+00
     14 -0.115772D-01  0.143785D-01 -0.119648D+00  0.146177D+00
     15 -0.487241D-02  0.622678D-02  0.800535D-01 -0.681210D-01  0.110567D+00
     16 -0.334245D-05  0.000000D+00 -0.740686D-05 -0.948546D-05  0.000000D+00
     17 -0.175419D-03  0.000000D+00 -0.388728D-03 -0.497818D-03  0.000000D+00
     18  0.000000D+00  0.000000D+00  0.000000D+00  0.000000D+00  0.000000D+00
     19  0.171585D-03  0.000000D+00  0.380232D-03  0.486938D-03  0.000000D+00
     20  0.710233D-04  0.000000D+00  0.157387D-03  0.201555D-03  0.000000D+00
     21  0.000000D+00  0.000000D+00  0.000000D+00  0.000000D+00  0.000000D+00
     22 -0.153336D-03  0.000000D+00 -0.339791D-03 -0.435147D-03  0.000000D+00
     23  0.104436D-03  0.000000D+00  0.231430D-03  0.296376D-03  0.000000D+00
     24  0.000000D+00  0.000000D+00  0.000000D+00  0.000000D+00  0.000000D+00
               16            17            18            19            20 
     16  0.318128D+00
     17 -0.476213D-02  0.547493D-01
     18 -0.744431D-01  0.231473D-02  0.809235D-01
     19 -0.424309D-02  0.290631D-01 -0.166616D-01  0.902703D-01
     20 -0.839218D-03  0.595290D-02 -0.330896D-02 -0.820120D-01  0.258531D+00
     21  0.184777D-02 -0.122439D-01  0.722847D-02  0.439231D-01 -0.979048D-01
     22 -0.537511D-02 -0.255980D-01 -0.169760D-01  0.128403D-01  0.104316D-01
     23  0.201329D-02  0.991135D-02  0.633709D-02 -0.158108D-01 -0.131850D-01
     24  0.302108D-02  0.137944D-01  0.958062D-02  0.129545D-01  0.111481D-01
               21            22            23            24 
     21  0.107182D+00
     22  0.103090D-01  0.130316D+00
     23 -0.133793D-01  0.112031D+00  0.220006D+00
     24  0.116575D-01  0.608314D-01  0.865503D-01  0.108852D+00
 Force constants in internal coordinates: 
                1             2             3             4             5 
      1  0.285213D+00
      2  0.000000D+00  0.344196D+00
      3  0.000000D+00  0.000000D+00  0.331031D+00
      4  0.000000D+00  0.000000D+00  0.000000D+00  0.348298D+00
      5  0.000000D+00  0.000000D+00  0.000000D+00  0.000000D+00  0.339651D+00
      6  0.000000D+00  0.000000D+00  0.000000D+00  0.000000D+00  0.000000D+00
      7  0.000000D+00  0.000000D+00  0.000000D+00  0.000000D+00  0.000000D+00
      8  0.000000D+00  0.000000D+00  0.000000D+00  0.000000D+00  0.000000D+00
      9  0.000000D+00  0.000000D+00  0.000000D+00  0.000000D+00  0.000000D+00
     10  0.000000D+00  0.000000D+00  0.000000D+00  0.000000D+00  0.000000D+00
     11  0.000000D+00  0.000000D+00  0.000000D+00  0.000000D+00  0.000000D+00
     12  0.000000D+00  0.000000D+00  0.000000D+00  0.000000D+00  0.000000D+00
     13  0.000000D+00  0.000000D+00  0.000000D+00  0.000000D+00  0.000000D+00
     14  0.000000D+00  0.000000D+00  0.000000D+00  0.000000D+00  0.000000D+00
     15  0.000000D+00  0.000000D+00  0.000000D+00  0.000000D+00  0.000000D+00
     16  0.000000D+00  0.000000D+00  0.000000D+00  0.000000D+00  0.000000D+00
     17  0.000000D+00  0.000000D+00  0.000000D+00  0.000000D+00  0.000000D+00
     18  0.000000D+00  0.000000D+00  0.000000D+00  0.000000D+00  0.000000D+00
                6             7             8             9            10 
      6  0.341071D+00
      7  0.000000D+00  0.343514D+00
      8  0.000000D+00  0.000000D+00  0.270989D+00
      9  0.000000D+00  0.000000D+00  0.246693D-01  0.227769D+00
     10  0.000000D+00  0.000000D+00  0.906467D-01  0.302566D-01  0.272196D+00
     11  0.000000D+00  0.000000D+00  0.000000D+00  0.000000D+00  0.000000D+00
     12  0.000000D+00  0.000000D+00  0.000000D+00  0.000000D+00  0.000000D+00
     13  0.000000D+00  0.000000D+00  0.000000D+00  0.000000D+00  0.000000D+00
     14  0.000000D+00  0.000000D+00 -0.481558D-01  0.554010D-02  0.508140D-01
     15  0.000000D+00  0.000000D+00  0.709018D-01 -0.654367D-01  0.187554D-01
     16  0.000000D+00  0.000000D+00  0.000000D+00  0.000000D+00  0.000000D+00
     17  0.000000D+00  0.000000D+00  0.000000D+00  0.000000D+00  0.000000D+00
     18  0.000000D+00  0.000000D+00  0.000000D+00  0.000000D+00  0.000000D+00
               11            12            13            14            15 
     11  0.255853D+00
     12  0.355508D-01  0.248853D+00
     13  0.468877D-01  0.602466D-01  0.261455D+00
     14  0.000000D+00  0.000000D+00  0.000000D+00  0.244963D+00
     15  0.000000D+00  0.000000D+00  0.000000D+00 -0.115183D+00  0.192620D+00
     16  0.256469D-04 -0.355842D-04  0.734211D-04  0.711548D-02  0.711548D-02
     17 -0.677009D-01  0.134726D-01  0.693168D-01  0.237183D-02  0.237183D-02
     18  0.715807D-01 -0.689483D-01 -0.665010D-02  0.237183D-02  0.237183D-02
               16            17            18 
     16  0.213652D-01
     17  0.705215D-02  0.201806D+00
     18  0.699650D-02 -0.857615D-01  0.193568D+00
 Leave Link  716 at Wed May 26 19:17:30 2021, MaxMem=   13107200 cpu:       0.0
 (Enter /programs/64bit/g09/g09-gfortran/bin/l103.exe)

 GradGradGradGradGradGradGradGradGradGradGradGradGradGradGradGradGradGrad
 Berny optimization.
 Search for a local minimum.
 Step number   1 out of a maximum of    2
 All quantities printed in internal units (Hartrees-Bohrs-Radians)
 Second derivative matrix not updated -- first step.
 The second derivative matrix:
                          d1        a1        t1        d2        a2
           d1           0.28521
           a1           0.00000   0.27099
           t1          -0.00000  -0.04816   0.24496
           d2           0.00000  -0.00000   0.00000   0.34420
           a2           0.00000   0.02467   0.00554  -0.00000   0.22777
           t2          -0.00000   0.07090  -0.11518  -0.00000  -0.06544
           d3          -0.00000   0.00000  -0.00000  -0.00000  -0.00000
           d4          -0.00000  -0.00000  -0.00000  -0.00000  -0.00000
           a3           0.00000   0.09065   0.05081  -0.00000   0.03026
           d5           0.00000   0.00000   0.00000   0.00000  -0.00000
           a4           0.00000   0.00000   0.00000   0.00000   0.00000
           t3          -0.00000   0.00000   0.00712   0.00000   0.00000
           d6           0.00000   0.00000   0.00000   0.00000   0.00000
           a5           0.00000   0.00000  -0.00000   0.00000   0.00000
           t4           0.00000   0.00000   0.00237   0.00000   0.00000
           d7           0.00000   0.00000  -0.00000   0.00000  -0.00000
           a6           0.00000   0.00000  -0.00000   0.00000   0.00000
           t5          -0.00000   0.00000   0.00237   0.00000   0.00000
                          t2        d3        d4        a3        d5
           t2           0.19262
           d3          -0.00000   0.33103
           d4          -0.00000   0.00000   0.34830
           a3           0.01876   0.00000  -0.00000   0.27220
           d5           0.00000   0.00000  -0.00000   0.00000   0.33965
           a4           0.00000  -0.00000   0.00000  -0.00000   0.00000
           t3           0.00712  -0.00000  -0.00000  -0.00000   0.00000
           d6           0.00000  -0.00000   0.00000  -0.00000   0.00000
           a5          -0.00000   0.00000  -0.00000   0.00000   0.00000
           t4           0.00237  -0.00000  -0.00000  -0.00000   0.00000
           d7          -0.00000  -0.00000  -0.00000   0.00000  -0.00000
           a6           0.00000   0.00000   0.00000  -0.00000   0.00000
           t5           0.00237  -0.00000  -0.00000  -0.00000  -0.00000
                          a4        t3        d6        a5        t4
           a4           0.25585
           t3           0.00003   0.02137
           d6           0.00000   0.00000   0.34107
           a5           0.03555  -0.00004   0.00000   0.24885
           t4          -0.06770   0.00705   0.00000   0.01347   0.20181
           d7          -0.00000   0.00000  -0.00000   0.00000   0.00000
           a6           0.04689   0.00007   0.00000   0.06025   0.06932
           t5           0.07158   0.00700  -0.00000  -0.06895  -0.08576
                          d7        a6        t5
           d7           0.34351
           a6           0.00000   0.26145
           t5           0.00000  -0.00665   0.19357
     Eigenvalues --- 1000.000001000.000001000.000001000.000001000.00000
     Eigenvalues --- 1000.000001000.000001000.000001000.000001000.00000
     Eigenvalues --- 1000.000001000.000001000.000001000.000001000.00000
     Eigenvalues --- 1000.000001000.000001000.00000
 Angle between quadratic step and forces=  90.00 degrees.
 Linear search not attempted -- first point.
 Variable       Old X    -DE/DX   Delta X   Delta X   Delta X     New X
                                 (Linear)    (Quad)   (Total)
    d1        2.91013   0.00001   0.00000   0.00000   0.00000   2.91013
    a1        1.94174   0.01586   0.00000   0.00000   0.00000   1.94174
    t1        1.87342   0.00579   0.00000   0.00000   0.00000   1.87342
    d2        2.06628  -0.00015   0.00000   0.00000   0.00000   2.06628
    a2        1.82514   0.00292   0.00000   0.00000   0.00000   1.82514
    t2       -2.47863   0.03474   0.00000   0.00000   0.00000  -2.47863
    d3        2.08871  -0.00020   0.00000   0.00000   0.00000   2.08871
    d4        2.05952   0.00007   0.00000   0.00000   0.00000   2.05952
    a3        1.98678   0.00669   0.00000   0.00000   0.00000   1.98678
    d5        2.07389  -0.00009   0.00000   0.00000   0.00000   2.07389
    a4        1.85107   0.01487   0.00000   0.00000   0.00000   1.85107
    t3        3.12254   0.00512   0.00000   0.00000   0.00000   3.12254
    d6        2.07150   0.00007   0.00000   0.00000   0.00000   2.07150
    a5        2.00077  -0.01564   0.00000   0.00000   0.00000   2.00077
    t4        1.98230   0.00856   0.00000   0.00000   0.00000   1.98230
    d7        2.06741   0.00011   0.00000   0.00000   0.00000   2.06741
    a6        1.99429  -0.00144   0.00000   0.00000   0.00000   1.99429
    t5       -2.14967   0.01075   0.00000   0.00000   0.00000  -2.14967
         Item               Value     Threshold  Converged?
 Maximum Force            0.000000     0.000450     YES
 RMS     Force            0.000000     0.000300     YES
 Maximum Displacement     0.000000     0.001800     YES
 RMS     Displacement     0.000000     0.001200     YES
 Predicted change in Energy=-0.000000D+00
 Optimization completed.
    -- Stationary point found.
                       ----------------------------
                       !   Optimized Parameters   !
                       ! (Angstroms and Degrees)  !
 ----------------------                            ----------------------
 !      Name          Value   Derivative information (Atomic Units)     !
 ------------------------------------------------------------------------
 !       d1          1.54     -DE/DX =    0.0                           !
 !       a1        111.2537   -DE/DX =    0.0159                        !
 !       t1        107.3389   -DE/DX =    0.0058                        !
 !       d2          1.0934   -DE/DX =   -0.0002                        !
 !       a2        104.5726   -DE/DX =    0.0029                        !
 !       t2       -142.015    -DE/DX =    0.0347                        !
 !       d3          1.1053   -DE/DX =   -0.0002                        !
 !       d4          1.0899   -DE/DX =    0.0001                        !
 !       a3        113.8342   -DE/DX =    0.0067                        !
 !       d5          1.0975   -DE/DX =   -0.0001                        !
 !       a4        106.0583   -DE/DX =    0.0149                        !
 !       t3        178.9084   -DE/DX =    0.0051                        !
 !       d6          1.0962   -DE/DX =    0.0001                        !
 !       a5        114.6359   -DE/DX =   -0.0156                        !
 !       t4        113.5774   -DE/DX =    0.0086                        !
 !       d7          1.094    -DE/DX =    0.0001                        !
 !       a6        114.2643   -DE/DX =   -0.0014                        !
 !       t5       -123.167    -DE/DX =    0.0108                        !
 ------------------------------------------------------------------------
 GradGradGradGradGradGradGradGradGradGradGradGradGradGradGradGradGradGrad

 Leave Link  103 at Wed May 26 19:17:30 2021, MaxMem=   13107200 cpu:       0.0
 (Enter /programs/64bit/g09/g09-gfortran/bin/l9999.exe)
 1\1\GINC-MOLMOD\Force\RB3LYP\6-31+G(d,p)\C2H6\OSPITE\26-May-2021\1\\#p
  b3lyp/6-31+g(d,p) force nosym\\c2h6 molecule\\0,1\C\C,1,d1\H,1,d2,2,a
 1\H,1,d3,2,a2,3,t1,0\H,1,d4,2,a3,3,t2,0\H,2,d5,1,a4,3,t3,0\H,2,d6,1,a5
 ,6,t4,0\H,2,d7,1,a6,6,t5,0\\d1=1.5399729\a1=111.25370337\t1=107.338937
 79\d2=1.09342701\a2=104.57256491\t2=-142.01499912\d3=1.10529635\d4=1.0
 8985119\a3=113.83419286\d5=1.09745522\a4=106.0582559\t3=178.90841448\d
 6=1.09618938\a5=114.63591284\t4=113.57742414\d7=1.09402726\a6=114.2643
 4581\t5=-123.16697438\\Version=EM64L-G09RevA.02\HF=-79.8318659\RMSD=5.
 293e-09\RMSF=1.146e-02\Dipole=-0.0236007,-0.0621751,-0.0027278\Quadrup
 ole=0.4315511,-0.0538592,-0.3776919,-0.1064272,0.1285836,-0.1106786\PG
 =C01 [X(C2H6)]\\@


 I MET A TRAVELLER FROM AN ANTIQUE LAND
 WHO SAID... TWO VAST AND TRUNKLESS LEGS OF STONE
 STAND IN THE DESERT..... NEAR THEM,  ON THE SAND,
 HALF SUNK,  A SHATTERED VISAGE LIES,  WHOSE FROWN,
 AND WRINKLED LIP,  AND SNEER OF COLD COMMAND
 TELL THAT ITS SCULPTOR WELL THOSE PASSIONS READ
 WHICH YET SURVIVE,  STAMPED ON THESE LIFELESS THINGS
 THE HAND THAT MOCKED THEM,  AND THE HEART THAT FED-
 AND ON THE PEDESTAL THESE WORDS APPEAR 
 MY NAME IS OZYMANDIAS, KING OF KINGS--   
 LOOK ON MY WORKS YE MIGHTY AND DESPAIR. 
 NOTHING BESIDE REMAINS,  ROUND THE DECAY 
 OF THAT COLOSSAL WRECK,  BOUNDLESS AND BARE
 THE LONE AND LEVEL SANDS STRETCH FAR AWAY.
                                    SHELLEY
 Job cpu time:  0 days  0 hours  0 minutes  7.1 seconds.
 File lengths (MBytes):  RWF=      5 Int=      0 D2E=      0 Chk=      1 Scr=      1
 Normal termination of Gaussian 09 at Wed May 26 19:17:30 2021.
