 Entering Gaussian System, Link 0=g09
 Input=c2h6_027.com
 Output=c2h6_027.log
 Initial command:
 /programs/64bit/g09/g09-gfortran/bin/l1.exe /data/scratch/Gau-6533.inp -scrdir=/data/scratch/
 Entering Link 1 = /programs/64bit/g09/g09-gfortran/bin/l1.exe PID=      6534.
  
 Copyright (c) 1988,1990,1992,1993,1995,1998,2003,2009, Gaussian, Inc.
                  All Rights Reserved.
  
 This is part of the Gaussian(R) 09 program.  It is based on
 the Gaussian(R) 03 system (copyright 2003, Gaussian, Inc.),
 the Gaussian(R) 98 system (copyright 1998, Gaussian, Inc.),
 the Gaussian(R) 94 system (copyright 1995, Gaussian, Inc.),
 the Gaussian 92(TM) system (copyright 1992, Gaussian, Inc.),
 the Gaussian 90(TM) system (copyright 1990, Gaussian, Inc.),
 the Gaussian 88(TM) system (copyright 1988, Gaussian, Inc.),
 the Gaussian 86(TM) system (copyright 1986, Carnegie Mellon
 University), and the Gaussian 82(TM) system (copyright 1983,
 Carnegie Mellon University). Gaussian is a federally registered
 trademark of Gaussian, Inc.
  
 This software contains proprietary and confidential information,
 including trade secrets, belonging to Gaussian, Inc.
  
 This software is provided under written license and may be
 used, copied, transmitted, or stored only in accord with that
 written license.
  
 The following legend is applicable only to US Government
 contracts under FAR:
  
                    RESTRICTED RIGHTS LEGEND
  
 Use, reproduction and disclosure by the US Government is
 subject to restrictions as set forth in subparagraphs (a)
 and (c) of the Commercial Computer Software - Restricted
 Rights clause in FAR 52.227-19.
  
 Gaussian, Inc.
 340 Quinnipiac St., Bldg. 40, Wallingford CT 06492
  
  
 ---------------------------------------------------------------
 Warning -- This program may not be used in any manner that
 competes with the business of Gaussian, Inc. or will provide
 assistance to any competitor of Gaussian, Inc.  The licensee
 of this program is prohibited from giving any competitor of
 Gaussian, Inc. access to this program.  By using this program,
 the user acknowledges that Gaussian, Inc. is engaged in the
 business of creating and licensing software in the field of
 computational chemistry and represents and warrants to the
 licensee that it is not a competitor of Gaussian, Inc. and that
 it will not use this program in any manner prohibited above.
 ---------------------------------------------------------------
  

 Cite this work as:
 Gaussian 09, Revision A.02,
 M. J. Frisch, G. W. Trucks, H. B. Schlegel, G. E. Scuseria, 
 M. A. Robb, J. R. Cheeseman, G. Scalmani, V. Barone, B. Mennucci, 
 G. A. Petersson, H. Nakatsuji, M. Caricato, X. Li, H. P. Hratchian, 
 A. F. Izmaylov, J. Bloino, G. Zheng, J. L. Sonnenberg, M. Hada, 
 M. Ehara, K. Toyota, R. Fukuda, J. Hasegawa, M. Ishida, T. Nakajima, 
 Y. Honda, O. Kitao, H. Nakai, T. Vreven, J. A. Montgomery, Jr., 
 J. E. Peralta, F. Ogliaro, M. Bearpark, J. J. Heyd, E. Brothers, 
 K. N. Kudin, V. N. Staroverov, R. Kobayashi, J. Normand, 
 K. Raghavachari, A. Rendell, J. C. Burant, S. S. Iyengar, J. Tomasi, 
 M. Cossi, N. Rega, J. M. Millam, M. Klene, J. E. Knox, J. B. Cross, 
 V. Bakken, C. Adamo, J. Jaramillo, R. Gomperts, R. E. Stratmann, 
 O. Yazyev, A. J. Austin, R. Cammi, C. Pomelli, J. W. Ochterski, 
 R. L. Martin, K. Morokuma, V. G. Zakrzewski, G. A. Voth, 
 P. Salvador, J. J. Dannenberg, S. Dapprich, A. D. Daniels, 
 O. Farkas, J. B. Foresman, J. V. Ortiz, J. Cioslowski, 
 and D. J. Fox, Gaussian, Inc., Wallingford CT, 2009.
 
 ******************************************
 Gaussian 09:  EM64L-G09RevA.02 11-Jun-2009
                26-May-2021 
 ******************************************
 %chk=c2h6_027.chk
 %mem=100MB
 --------------------------------
 #p b3lyp/6-31+g(d,p) force nosym
 --------------------------------
 1/10=7,30=1,38=1/1,3;
 2/12=2,15=1,17=6,18=5,40=1/2;
 3/5=1,6=6,7=111,11=2,16=1,25=1,30=1,71=1,74=-5/1,2,3;
 4//1;
 5/5=2,38=5/2;
 6/7=2,8=2,9=2,10=2,28=1/1;
 7/29=1,30=1/1,2,3,16;
 1/10=7,30=1/3;
 99//99;
 Leave Link    1 at Wed May 26 19:12:18 2021, MaxMem=   13107200 cpu:       0.0
 (Enter /programs/64bit/g09/g09-gfortran/bin/l101.exe)
 -------------
 c2h6 molecule
 -------------
 Symbolic Z-matrix:
 Charge =  0 Multiplicity = 1
 C1
 C2                   1    d1
 H3                   1    d2       2    a1
 H4                   1    d3       2    a2       3    t1       0
 H5                   1    d4       2    a3       3    t2       0
 H6                   2    d5       1    a4       3    t3       0
 H7                   2    d6       1    a5       6    t4       0
 H8                   2    d7       1    a6       6    t5       0
       Variables:
       Constants:
  d1                    1.73838                  
  a1                  150.01653                  
  t1                   98.69644                  
  d2                    1.09417                  
  a2                   88.24803                  
  t2                 -157.56911                  
  d3                    1.09173                  
  d4                    1.08422                  
  a3                   86.04048                  
  d5                    1.08762                  
  a4                   90.37014                  
  t3                  179.82934                  
  d6                    1.09283                  
  a5                   90.56021                  
  t4                  122.38979                  
  d7                    1.10196                  
  a6                  156.03211                  
  t5                 -120.00048                  
 
 NAtoms=      8 NQM=      8 NQMF=      0 NMic=      0 NMicF=      0 NTot=      8.
                    Isotopes and Nuclear Properties:
 (Nuclear quadrupole moments (NQMom) in fm**2, nuclear magnetic moments (NMagM)
  in nuclear magnetons)

  Atom         1           2           3           4           5           6           7           8
 IAtWgt=          12          12           1           1           1           1           1           1
 AtmWgt=  12.0000000  12.0000000   1.0078250   1.0078250   1.0078250   1.0078250   1.0078250   1.0078250
 NucSpn=           0           0           1           1           1           1           1           1
 AtZEff=   0.0000000   0.0000000   0.0000000   0.0000000   0.0000000   0.0000000   0.0000000   0.0000000
 NQMom=    0.0000000   0.0000000   0.0000000   0.0000000   0.0000000   0.0000000   0.0000000   0.0000000
 NMagM=    0.0000000   0.0000000   2.7928460   2.7928460   2.7928460   2.7928460   2.7928460   2.7928460
 Leave Link  101 at Wed May 26 19:12:18 2021, MaxMem=   13107200 cpu:       0.0
 (Enter /programs/64bit/g09/g09-gfortran/bin/l103.exe)

 GradGradGradGradGradGradGradGradGradGradGradGradGradGradGradGradGradGrad
 Berny optimization.
 Initialization pass.
                       ----------------------------
                       !    Initial Parameters    !
                       ! (Angstroms and Degrees)  !
 ----------------------                            ----------------------
 !      Name          Value   Derivative information (Atomic Units)     !
 ------------------------------------------------------------------------
 !       d1          1.7384   Frozen                                    !
 !       a1        150.0165   Frozen                                    !
 !       t1         98.6964   Frozen                                    !
 !       d2          1.0942   Frozen                                    !
 !       a2         88.248    Frozen                                    !
 !       t2       -157.5691   Frozen                                    !
 !       d3          1.0917   Frozen                                    !
 !       d4          1.0842   Frozen                                    !
 !       a3         86.0405   Frozen                                    !
 !       d5          1.0876   Frozen                                    !
 !       a4         90.3701   Frozen                                    !
 !       t3        179.8293   Frozen                                    !
 !       d6          1.0928   Frozen                                    !
 !       a5         90.5602   Frozen                                    !
 !       t4        122.3898   Frozen                                    !
 !       d7          1.102    Frozen                                    !
 !       a6        156.0321   Frozen                                    !
 !       t5       -120.0005   Frozen                                    !
 ------------------------------------------------------------------------
 Trust Radius=3.00D-01 FncErr=1.00D-07 GrdErr=1.00D-07
 Number of steps in this run=   2 maximum allowed number of steps=   2.
 GradGradGradGradGradGradGradGradGradGradGradGradGradGradGradGradGradGrad

 Leave Link  103 at Wed May 26 19:12:18 2021, MaxMem=   13107200 cpu:       0.0
 (Enter /programs/64bit/g09/g09-gfortran/bin/l202.exe)
                          Input orientation:                          
 ---------------------------------------------------------------------
 Center     Atomic      Atomic             Coordinates (Angstroms)
 Number     Number       Type             X           Y           Z
 ---------------------------------------------------------------------
      1          6           0        0.000000    0.000000    0.000000
      2          6           0        0.000000    0.000000    1.738379
      3          1           0        0.546814    0.000000   -0.947741
      4          1           0       -0.164992   -1.078676    0.033377
      5          1           0       -0.999800    0.412719    0.074867
      6          1           0       -1.087593    0.003240    1.745405
      7          1           0        0.582625   -0.924508    1.749064
      8          1           0        0.224979    0.387001    2.745322
 ---------------------------------------------------------------------
                    Distance matrix (angstroms):
                    1          2          3          4          5
     1  C    0.000000
     2  C    1.738379   0.000000
     3  H    1.094175   2.741212   0.000000
     4  H    1.091731   2.024301   1.622591   0.000000
     5  H    1.084225   1.984240   1.899495   1.709644   0.000000
     6  H    2.056528   1.087620   3.150291   2.225482   1.722230
     7  H    2.062375   1.092832   2.851097   1.877839   2.663678
     8  H    2.781578   1.101961   3.727205   3.107238   2.938039
                    6          7          8
     6  H    0.000000
     7  H    1.910591   0.000000
     8  H    1.694093   1.685377   0.000000
 Symmetry turned off by external request.
 Stoichiometry    C2H6
 Framework group  C1[X(C2H6)]
 Deg. of freedom    18
 Full point group                 C1      NOp   1
 Rotational constants (GHZ):     97.3370485     17.0065395     16.1496156
 Leave Link  202 at Wed May 26 19:12:18 2021, MaxMem=   13107200 cpu:       0.0
 (Enter /programs/64bit/g09/g09-gfortran/bin/l301.exe)
 Standard basis: 6-31+G(d,p) (6D, 7F)
 Ernie: Thresh=  0.10000D-02 Tol=  0.10000D-05 Strict=F.
 Integral buffers will be    131072 words long.
 Raffenetti 2 integral format.
 Two-electron integral symmetry is turned off.
    68 basis functions,   106 primitive gaussians,    68 cartesian basis functions
     9 alpha electrons        9 beta electrons
       nuclear repulsion energy        40.6439097581 Hartrees.
 IExCor=  402 DFT=T Ex+Corr=B3LYP ExCW=0 ScaHFX=  0.200000
 ScaDFX=  0.800000  0.720000  1.000000  0.810000 ScalE2=  1.000000  1.000000
 IRadAn=      0 IRanWt=     -1 IRanGd=            0 ICorTp=0
 NAtoms=    8 NActive=    8 NUniq=    8 SFac= 7.50D-01 NAtFMM=   80 NAOKFM=F Big=F
 Leave Link  301 at Wed May 26 19:12:18 2021, MaxMem=   13107200 cpu:       0.0
 (Enter /programs/64bit/g09/g09-gfortran/bin/l302.exe)
 NPDir=0 NMtPBC=     1 NCelOv=     1 NCel=       1 NClECP=     1 NCelD=      1
         NCelK=      1 NCelE2=     1 NClLst=     1 CellRange=     0.0.
 One-electron integrals computed using PRISM.
 NBasis=    68 RedAO= T  NBF=    68
 NBsUse=    68 1.00D-06 NBFU=    68
 Precomputing XC quadrature grid using
 IXCGrd= 2 IRadAn=           0 IRanWt=          -1 IRanGd=           0 AccXCQ= 1.00D-10.
 NRdTot=     510 NPtTot=       65100 NUsed=       68787 NTot=       68819
 NSgBfM=    68    68    68    68    68 NAtAll=     8     8.
 Leave Link  302 at Wed May 26 19:12:18 2021, MaxMem=   13107200 cpu:       0.1
 (Enter /programs/64bit/g09/g09-gfortran/bin/l303.exe)
 DipDrv:  MaxL=1.
 Leave Link  303 at Wed May 26 19:12:18 2021, MaxMem=   13107200 cpu:       0.0
 (Enter /programs/64bit/g09/g09-gfortran/bin/l401.exe)
 Harris functional with IExCor=  402 diagonalized for initial guess.
 ExpMin= 4.38D-02 ExpMax= 3.05D+03 ExpMxC= 4.57D+02 IAcc=2 IRadAn=         0 AccDes= 0.00D+00
 HarFok:  IExCor=  402 AccDes= 0.00D+00 IRadAn=         0 IDoV= 1
 ScaDFX=  1.000000  1.000000  1.000000  1.000000
 FoFCou: FMM=F IPFlag=           0 FMFlag=      100000 FMFlg1=           0
         NFxFlg=           0 DoJE=T BraDBF=F KetDBF=T FulRan=T
         Omega=  0.000000  0.000000  1.000000  0.000000  0.000000 ICntrl=     500 IOpCl=  0
         NMat0=    1 NMatS0=    1 NMatT0=    0 NMatD0=    1 NMtDS0=    0 NMtDT0=    0
         I1Cent=           4 NGrid=           0.
 Symmetry not used in FoFCou.
 Harris En= -79.7658350289170    
 Leave Link  401 at Wed May 26 19:12:19 2021, MaxMem=   13107200 cpu:       0.7
 (Enter /programs/64bit/g09/g09-gfortran/bin/l502.exe)
 Closed shell SCF:
 Requested convergence on RMS density matrix=1.00D-08 within 128 cycles.
 Requested convergence on MAX density matrix=1.00D-06.
 Requested convergence on             energy=1.00D-06.
 No special actions if energy rises.
 Using DIIS extrapolation, IDIIS=  1040.
 Two-electron integral symmetry not used.
        68702 words used for storage of precomputed grid.
 Keep R1 ints in memory in canonical form, NReq=3743087.
 IEnd=      101552 IEndB=      101552 NGot=    13107200 MDV=    10273922
 LenX=    10273922 LenY=    10268857
 Symmetry not used in FoFDir.
 MinBra= 0 MaxBra= 2 Meth= 1.
 IRaf=       0 NMat=   1 IRICut=       1 DoRegI=T DoRafI=F ISym2E= 0 JSym2E=0.

 Cycle   1  Pass 1  IDiag  1:
 E= -79.6140379340679    
 DIIS: error= 3.53D-02 at cycle   1 NSaved=   1.
 NSaved= 1 IEnMin= 1 EnMin= -79.6140379340679     IErMin= 1 ErrMin= 3.53D-02
 ErrMax= 3.53D-02 EMaxC= 1.00D-01 BMatC= 9.16D-02 BMatP= 9.16D-02
 IDIUse=3 WtCom= 6.47D-01 WtEn= 3.53D-01
 Coeff-Com:  0.100D+01
 Coeff-En:   0.100D+01
 Coeff:      0.100D+01
 Gap=     0.315 Goal=   None    Shift=    0.000
 GapD=    0.315 DampG=1.000 DampE=0.500 DampFc=0.5000 IDamp=-1.
 Damping current iteration by 5.00D-01
 RMSDP=1.07D-02 MaxDP=1.28D-01              OVMax= 2.05D-01

 Cycle   2  Pass 1  IDiag  1:
 E= -79.6586449832798     Delta-E=       -0.044607049212 Rises=F Damp=T
 DIIS: error= 8.96D-03 at cycle   2 NSaved=   2.
 NSaved= 2 IEnMin= 2 EnMin= -79.6586449832798     IErMin= 2 ErrMin= 8.96D-03
 ErrMax= 8.96D-03 EMaxC= 1.00D-01 BMatC= 4.22D-03 BMatP= 9.16D-02
 IDIUse=3 WtCom= 9.10D-01 WtEn= 8.96D-02
 Coeff-Com:  0.101D+00 0.899D+00
 Coeff-En:   0.170D+00 0.830D+00
 Coeff:      0.108D+00 0.892D+00
 Gap=     0.304 Goal=   None    Shift=    0.000
 RMSDP=1.90D-03 MaxDP=2.60D-02 DE=-4.46D-02 OVMax= 1.16D-01

 Cycle   3  Pass 1  IDiag  1:
 E= -79.7197882263678     Delta-E=       -0.061143243088 Rises=F Damp=F
 DIIS: error= 2.08D-03 at cycle   3 NSaved=   3.
 NSaved= 3 IEnMin= 3 EnMin= -79.7197882263678     IErMin= 3 ErrMin= 2.08D-03
 ErrMax= 2.08D-03 EMaxC= 1.00D-01 BMatC= 3.23D-04 BMatP= 4.22D-03
 IDIUse=3 WtCom= 9.79D-01 WtEn= 2.08D-02
 Coeff-Com:  0.539D-02 0.183D+00 0.811D+00
 Coeff-En:   0.000D+00 0.000D+00 0.100D+01
 Coeff:      0.527D-02 0.180D+00 0.815D+00
 Gap=     0.290 Goal=   None    Shift=    0.000
 RMSDP=4.45D-04 MaxDP=4.42D-03 DE=-6.11D-02 OVMax= 6.51D-03

 Cycle   4  Pass 1  IDiag  1:
 E= -79.7201039365131     Delta-E=       -0.000315710145 Rises=F Damp=F
 DIIS: error= 4.47D-04 at cycle   4 NSaved=   4.
 NSaved= 4 IEnMin= 4 EnMin= -79.7201039365131     IErMin= 4 ErrMin= 4.47D-04
 ErrMax= 4.47D-04 EMaxC= 1.00D-01 BMatC= 1.58D-05 BMatP= 3.23D-04
 IDIUse=3 WtCom= 9.96D-01 WtEn= 4.47D-03
 Coeff-Com: -0.479D-03 0.942D-03 0.178D+00 0.822D+00
 Coeff-En:   0.000D+00 0.000D+00 0.000D+00 0.100D+01
 Coeff:     -0.477D-03 0.937D-03 0.177D+00 0.822D+00
 Gap=     0.291 Goal=   None    Shift=    0.000
 RMSDP=1.10D-04 MaxDP=1.30D-03 DE=-3.16D-04 OVMax= 1.82D-03

 Cycle   5  Pass 1  IDiag  1:
 E= -79.7201185476981     Delta-E=       -0.000014611185 Rises=F Damp=F
 DIIS: error= 1.37D-04 at cycle   5 NSaved=   5.
 NSaved= 5 IEnMin= 5 EnMin= -79.7201185476981     IErMin= 5 ErrMin= 1.37D-04
 ErrMax= 1.37D-04 EMaxC= 1.00D-01 BMatC= 1.96D-06 BMatP= 1.58D-05
 IDIUse=3 WtCom= 9.99D-01 WtEn= 1.37D-03
 Coeff-Com: -0.162D-03-0.120D-02 0.918D-01 0.461D+00 0.448D+00
 Coeff-En:   0.000D+00 0.000D+00 0.000D+00 0.000D+00 0.100D+01
 Coeff:     -0.162D-03-0.120D-02 0.917D-01 0.460D+00 0.449D+00
 Gap=     0.291 Goal=   None    Shift=    0.000
 RMSDP=2.15D-05 MaxDP=3.09D-04 DE=-1.46D-05 OVMax= 6.67D-04

 Cycle   6  Pass 1  IDiag  1:
 E= -79.7201206226365     Delta-E=       -0.000002074938 Rises=F Damp=F
 DIIS: error= 2.44D-05 at cycle   6 NSaved=   6.
 NSaved= 6 IEnMin= 6 EnMin= -79.7201206226365     IErMin= 6 ErrMin= 2.44D-05
 ErrMax= 2.44D-05 EMaxC= 1.00D-01 BMatC= 6.52D-08 BMatP= 1.96D-06
 IDIUse=1 WtCom= 1.00D+00 WtEn= 0.00D+00
 Coeff-Com:  0.143D-03-0.743D-03 0.102D-01 0.626D-01 0.172D+00 0.756D+00
 Coeff:      0.143D-03-0.743D-03 0.102D-01 0.626D-01 0.172D+00 0.756D+00
 Gap=     0.291 Goal=   None    Shift=    0.000
 RMSDP=3.88D-06 MaxDP=5.40D-05 DE=-2.07D-06 OVMax= 8.63D-05

 Cycle   7  Pass 1  IDiag  1:
 E= -79.7201206907652     Delta-E=       -0.000000068129 Rises=F Damp=F
 DIIS: error= 3.07D-06 at cycle   7 NSaved=   7.
 NSaved= 7 IEnMin= 7 EnMin= -79.7201206907652     IErMin= 7 ErrMin= 3.07D-06
 ErrMax= 3.07D-06 EMaxC= 1.00D-01 BMatC= 1.21D-09 BMatP= 6.52D-08
 IDIUse=1 WtCom= 1.00D+00 WtEn= 0.00D+00
 Coeff-Com:  0.702D-04-0.184D-03-0.119D-02-0.249D-02 0.293D-01 0.195D+00
 Coeff-Com:  0.779D+00
 Coeff:      0.702D-04-0.184D-03-0.119D-02-0.249D-02 0.293D-01 0.195D+00
 Coeff:      0.779D+00
 Gap=     0.291 Goal=   None    Shift=    0.000
 RMSDP=9.92D-07 MaxDP=1.02D-05 DE=-6.81D-08 OVMax= 1.46D-05

 Cycle   8  Pass 1  IDiag  1:
 E= -79.7201206922169     Delta-E=       -0.000000001452 Rises=F Damp=F
 DIIS: error= 6.32D-07 at cycle   8 NSaved=   8.
 NSaved= 8 IEnMin= 8 EnMin= -79.7201206922169     IErMin= 8 ErrMin= 6.32D-07
 ErrMax= 6.32D-07 EMaxC= 1.00D-01 BMatC= 2.51D-11 BMatP= 1.21D-09
 IDIUse=1 WtCom= 1.00D+00 WtEn= 0.00D+00
 Coeff-Com:  0.124D-04-0.199D-04-0.506D-03-0.203D-02 0.177D-02 0.197D-01
 Coeff-Com:  0.170D+00 0.811D+00
 Coeff:      0.124D-04-0.199D-04-0.506D-03-0.203D-02 0.177D-02 0.197D-01
 Coeff:      0.170D+00 0.811D+00
 Gap=     0.291 Goal=   None    Shift=    0.000
 RMSDP=1.51D-07 MaxDP=1.73D-06 DE=-1.45D-09 OVMax= 2.55D-06

 Cycle   9  Pass 1  IDiag  1:
 E= -79.7201206922488     Delta-E=       -0.000000000032 Rises=F Damp=F
 DIIS: error= 8.25D-08 at cycle   9 NSaved=   9.
 NSaved= 9 IEnMin= 9 EnMin= -79.7201206922488     IErMin= 9 ErrMin= 8.25D-08
 ErrMax= 8.25D-08 EMaxC= 1.00D-01 BMatC= 5.76D-13 BMatP= 2.51D-11
 IDIUse=1 WtCom= 1.00D+00 WtEn= 0.00D+00
 Coeff-Com: -0.368D-06 0.197D-05-0.435D-04-0.194D-03-0.494D-03-0.255D-02
 Coeff-Com:  0.595D-02 0.140D+00 0.858D+00
 Coeff:     -0.368D-06 0.197D-05-0.435D-04-0.194D-03-0.494D-03-0.255D-02
 Coeff:      0.595D-02 0.140D+00 0.858D+00
 Gap=     0.291 Goal=   None    Shift=    0.000
 RMSDP=1.95D-08 MaxDP=2.24D-07 DE=-3.19D-11 OVMax= 4.08D-07

 Cycle  10  Pass 1  IDiag  1:
 E= -79.7201206922496     Delta-E=       -0.000000000001 Rises=F Damp=F
 DIIS: error= 1.09D-08 at cycle  10 NSaved=  10.
 NSaved=10 IEnMin=10 EnMin= -79.7201206922496     IErMin=10 ErrMin= 1.09D-08
 ErrMax= 1.09D-08 EMaxC= 1.00D-01 BMatC= 1.16D-14 BMatP= 5.76D-13
 IDIUse=1 WtCom= 1.00D+00 WtEn= 0.00D+00
 Coeff-Com: -0.400D-06 0.658D-06-0.167D-07 0.374D-06-0.134D-03-0.896D-03
 Coeff-Com: -0.229D-02 0.773D-02 0.143D+00 0.853D+00
 Coeff:     -0.400D-06 0.658D-06-0.167D-07 0.374D-06-0.134D-03-0.896D-03
 Coeff:     -0.229D-02 0.773D-02 0.143D+00 0.853D+00
 Gap=     0.291 Goal=   None    Shift=    0.000
 RMSDP=3.05D-09 MaxDP=3.26D-08 DE=-7.39D-13 OVMax= 4.79D-08

 SCF Done:  E(RB3LYP) =  -79.7201206922     A.U. after   10 cycles
             Convg  =    0.3046D-08             -V/T =  2.0108
 KE= 7.886992525865D+01 PE=-2.646775259553D+02 EE= 6.544357024624D+01
 Leave Link  502 at Wed May 26 19:12:26 2021, MaxMem=   13107200 cpu:       6.5
 (Enter /programs/64bit/g09/g09-gfortran/bin/l601.exe)
 Copying SCF densities to generalized density rwf, IOpCl= 0 IROHF=0.

 **********************************************************************

            Population analysis using the SCF density.

 **********************************************************************

 Alpha  occ. eigenvalues --  -10.19946 -10.19888  -0.75097  -0.63195  -0.47107
 Alpha  occ. eigenvalues --   -0.43185  -0.36844  -0.32882  -0.28964
 Alpha virt. eigenvalues --    0.00096   0.00948   0.04981   0.05844   0.06554
 Alpha virt. eigenvalues --    0.07341   0.08661   0.10210   0.14777   0.15452
 Alpha virt. eigenvalues --    0.19856   0.21380   0.25438   0.29441   0.32673
 Alpha virt. eigenvalues --    0.64468   0.64690   0.65643   0.68906   0.74355
 Alpha virt. eigenvalues --    0.75700   0.87910   0.88979   0.95094   0.97169
 Alpha virt. eigenvalues --    1.03424   1.04178   1.05642   1.21260   1.30563
 Alpha virt. eigenvalues --    1.43261   1.54317   1.69785   1.80384   1.92940
 Alpha virt. eigenvalues --    1.96073   2.02287   2.10607   2.14656   2.17439
 Alpha virt. eigenvalues --    2.21631   2.26876   2.36374   2.39230   2.57753
 Alpha virt. eigenvalues --    2.65857   2.66498   2.70596   2.73933   2.87070
 Alpha virt. eigenvalues --    2.91315   3.22294   3.26277   3.36221   3.41565
 Alpha virt. eigenvalues --    3.50794   3.64650   4.26463   4.66424
          Condensed to atoms (all electrons):
              1          2          3          4          5          6
     1  C    5.238919   0.141324   0.357120   0.433356   0.427020  -0.085054
     2  C    0.141324   5.219356   0.015571  -0.084889  -0.078192   0.438453
     3  H    0.357120   0.015571   0.535072  -0.049768  -0.017258   0.003495
     4  H    0.433356  -0.084889  -0.049768   0.617532  -0.037573  -0.005398
     5  H    0.427020  -0.078192  -0.017258  -0.037573   0.560954  -0.015458
     6  H   -0.085054   0.438453   0.003495  -0.005398  -0.015458   0.590741
     7  H   -0.092068   0.440210   0.002178  -0.023571   0.005628  -0.015753
     8  H    0.034701   0.341660  -0.000775   0.003771   0.000630  -0.045286
              7          8
     1  C   -0.092068   0.034701
     2  C    0.440210   0.341660
     3  H    0.002178  -0.000775
     4  H   -0.023571   0.003771
     5  H    0.005628   0.000630
     6  H   -0.015753  -0.045286
     7  H    0.578493  -0.041074
     8  H   -0.041074   0.552935
 Mulliken atomic charges:
              1
     1  C   -0.455317
     2  C   -0.433493
     3  H    0.154365
     4  H    0.146541
     5  H    0.154249
     6  H    0.134259
     7  H    0.145958
     8  H    0.153438
 Sum of Mulliken atomic charges =   0.00000
 Mulliken charges with hydrogens summed into heavy atoms:
              1
     1  C   -0.000163
     2  C    0.000163
 Sum of Mulliken charges with hydrogens summed into heavy atoms =   0.00000
 Electronic spatial extent (au):  <R**2>=            170.0027
 Charge=              0.0000 electrons
 Dipole moment (field-independent basis, Debye):
    X=             -0.2683    Y=             -0.5417    Z=             -0.0181  Tot=              0.6048
 Quadrupole moment (field-independent basis, Debye-Ang):
   XX=            -15.4628   YY=            -16.4024   ZZ=            -14.6746
   XY=             -1.0542   XZ=             -0.7371   YZ=              0.1760
 Traceless Quadrupole moment (field-independent basis, Debye-Ang):
   XX=              0.0504   YY=             -0.8891   ZZ=              0.8387
   XY=             -1.0542   XZ=             -0.7371   YZ=              0.1760
 Octapole moment (field-independent basis, Debye-Ang**2):
  XXX=              1.0049  YYY=              1.7704  ZZZ=            -38.5423  XYY=              0.8820
  XXY=              0.9641  XXZ=            -13.3736  XZZ=              1.1939  YZZ=              1.3872
  YYZ=            -14.9541  XYZ=             -1.1491
 Hexadecapole moment (field-independent basis, Debye-Ang**3):
 XXXX=            -31.0477 YYYY=            -30.8063 ZZZZ=           -172.5266 XXXY=             -0.1921
 XXXZ=              0.3045 YYYX=              0.1579 YYYZ=              1.0823 ZZZX=              2.0105
 ZZZY=              4.7136 XXYY=            -10.5373 XXZZ=            -36.4957 YYZZ=            -39.6005
 XXYZ=              0.5069 YYXZ=              0.9160 ZZXY=             -1.5446
 N-N= 4.064390975814D+01 E-N=-2.646775255703D+02  KE= 7.886992525865D+01
 No NMR shielding tensors so no spin-rotation constants.
 Leave Link  601 at Wed May 26 19:12:26 2021, MaxMem=   13107200 cpu:       0.0
 (Enter /programs/64bit/g09/g09-gfortran/bin/l701.exe)
 Compute integral first derivatives.
 ... and contract with generalized density number  0.
 Leave Link  701 at Wed May 26 19:12:26 2021, MaxMem=   13107200 cpu:       0.1
 (Enter /programs/64bit/g09/g09-gfortran/bin/l702.exe)
 L702 exits ... SP integral derivatives will be done elsewhere.
 Leave Link  702 at Wed May 26 19:12:26 2021, MaxMem=   13107200 cpu:       0.0
 (Enter /programs/64bit/g09/g09-gfortran/bin/l703.exe)
 Compute integral first derivatives, UseDBF=F ICtDFT=           0.
 Integral derivatives from FoFDir, PRISM(SPDF).
 Calling FoFJK, ICntrl=      2127 FMM=F ISym2X=0 I1Cent= 0 IOpClX= 0 NMat=1 NMatS=1 NMatT=0.
 FoFCou: FMM=F IPFlag=           0 FMFlag=      100000 FMFlg1=         800
         NFxFlg=           0 DoJE=F BraDBF=F KetDBF=F FulRan=T
         Omega=  0.000000  0.000000  1.000000  0.000000  0.000000 ICntrl=    2127 IOpCl=  0
         NMat0=    1 NMatS0=    1 NMatT0=    0 NMatD0=    1 NMtDS0=    0 NMtDT0=    0
         I1Cent=           0 NGrid=           0.
 Symmetry not used in FoFCou.
 Leave Link  703 at Wed May 26 19:12:27 2021, MaxMem=   13107200 cpu:       1.4
 (Enter /programs/64bit/g09/g09-gfortran/bin/l716.exe)
 Dipole        =-1.05551464D-01-2.13118267D-01-7.10884197D-03
 -------------------------------------------------------------------
 Center     Atomic                   Forces (Hartrees/Bohr)
 Number     Number              X              Y              Z
 -------------------------------------------------------------------
      1        6          -0.032648734   -0.016919991    0.036590987
      2        6           0.021731789   -0.025874247   -0.014730974
      3        1           0.018447216    0.034407672    0.011436384
      4        1          -0.008485527   -0.002234432   -0.005063471
      5        1           0.000021992    0.009178726   -0.041710519
      6        1           0.000071543   -0.023235851    0.012238618
      7        1          -0.020505229   -0.012363106    0.019966444
      8        1           0.021366950    0.037041228   -0.018727469
 -------------------------------------------------------------------
 Cartesian Forces:  Max     0.041710519 RMS     0.021863675
 -----------------------------------------------------------------------------------------------
                       Internal Coordinate Forces (Hartree/Bohr or radian)
  Cent   Atom   N1       Length/X         N2         Alpha/Y        N3         Beta/Z          J
 -----------------------------------------------------------------------------------------------
      1  C 
      2  C        1  -0.001253(     1)
      3  H        1  -0.000687(     2)      2  -0.044856(     8)
      4  H        1   0.003335(     3)      2   0.010662(     9)      3   0.016600(    14)     0
      5  H        1   0.000593(     4)      2   0.085749(    10)      3   0.017359(    15)     0
      6  H        2  -0.000062(     5)      1   0.025155(    11)      3  -0.001559(    16)     0
      7  H        2  -0.000278(     6)      1   0.041241(    12)      6  -0.049436(    17)     0
      8  H        2   0.000258(     7)      1  -0.097211(    13)      6   0.000122(    18)     0
 -----------------------------------------------------------------------------------------------
 Internal  Forces:  Max     0.097211311 RMS     0.036741729
 Force constants in Cartesian coordinates: 
                1             2             3             4             5 
      1  0.639882D+00
      2 -0.603000D-01  0.591482D+00
      3 -0.140356D+00 -0.144465D-01  0.619011D+00
      4 -0.954891D-01 -0.408360D-02  0.121546D-01  0.677857D+00
      5 -0.636735D-02 -0.887633D-01  0.137854D-01 -0.913332D-01  0.553218D+00
      6 -0.511891D-02 -0.947306D-02 -0.162834D+00  0.505657D-01  0.867471D-01
      7 -0.162898D+00  0.121828D-01  0.850347D-01  0.223421D-01  0.630829D-03
      8  0.245321D-01 -0.857980D-01 -0.115278D-01 -0.192572D-02  0.107462D-01
      9  0.104113D+00  0.702906D-02 -0.294284D+00  0.128906D-01  0.363967D-03
     10 -0.744047D-01 -0.577452D-01  0.207344D-01  0.535303D-03 -0.227063D-03
     11 -0.409461D-01 -0.337309D+00  0.539926D-02 -0.181376D-03 -0.692214D-03
     12  0.199391D-01 -0.267124D-03 -0.691466D-01 -0.321552D-02 -0.234931D-01
     13 -0.322869D+00  0.103117D+00  0.224324D-01 -0.242637D-03  0.236870D-02
     14  0.746054D-01 -0.106483D+00  0.678962D-02  0.337214D-02  0.404316D-02
     15  0.163045D-01  0.768460D-02 -0.927468D-01 -0.218297D-01  0.934376D-02
     16  0.150592D-03  0.473100D-05  0.000000D+00 -0.350857D+00  0.726410D-03
     17 -0.106050D-02  0.275977D-02  0.000000D+00 -0.159824D-01 -0.809881D-01
     18  0.237992D-01 -0.540119D-03  0.000000D+00  0.126270D-01 -0.120012D-01
     19  0.335784D-02  0.198812D-02  0.000000D+00 -0.148292D+00  0.106676D+00
     20  0.196553D-02  0.148165D-02  0.000000D+00  0.123686D+00 -0.277589D+00
     21 -0.130292D-01  0.197912D-01  0.000000D+00 -0.172792D-01  0.497793D-02
     22  0.122694D-01  0.483636D-02  0.000000D+00 -0.105854D+00 -0.124745D-01
     23  0.757096D-02  0.226299D-01  0.000000D+00 -0.135521D-01 -0.119975D+00
     24 -0.565110D-02 -0.977798D-02  0.000000D+00 -0.459135D-01 -0.797239D-01
                6             7             8             9            10 
      6  0.620562D+00
      7  0.000000D+00  0.139462D+00
      8  0.000000D+00 -0.816905D-02  0.598459D-01
      9  0.000000D+00 -0.117634D+00 -0.471326D-02  0.275475D+00
     10  0.000000D+00  0.855312D-03 -0.195828D-01  0.493486D-03  0.582142D-01
     11  0.000000D+00 -0.107874D-04  0.398848D-02 -0.622394D-05  0.434355D-01
     12  0.000000D+00  0.387939D-02  0.320957D-01  0.223828D-02 -0.195198D-01
     13  0.000000D+00  0.237770D-03  0.377939D-02  0.137185D-03  0.141231D-01
     14  0.000000D+00 -0.463379D-02  0.120315D-01 -0.267354D-02  0.345228D-01
     15  0.000000D+00  0.287198D-01 -0.158547D-01  0.165703D-01 -0.170817D-02
     16  0.172789D-02  0.000000D+00  0.322580D-05  0.000000D+00  0.159787D-05
     17 -0.112066D-01  0.000000D+00  0.108298D-02  0.000000D+00  0.536445D-03
     18 -0.782621D-01  0.000000D+00  0.000000D+00  0.000000D+00  0.000000D+00
     19 -0.108262D-01  0.000000D+00 -0.911877D-03  0.000000D+00 -0.451691D-03
     20 -0.372543D-02  0.000000D+00 -0.574665D-03  0.000000D+00 -0.284655D-03
     21 -0.768854D-01  0.000000D+00  0.000000D+00  0.000000D+00  0.000000D+00
     22 -0.363484D-01  0.000000D+00  0.227477D-02  0.000000D+00  0.112679D-02
     23 -0.623420D-01  0.000000D+00 -0.132241D-02  0.000000D+00 -0.655046D-03
     24 -0.302580D+00  0.000000D+00  0.000000D+00  0.000000D+00  0.000000D+00
               11            12            13            14            15 
     11  0.339314D+00
     12 -0.566262D-02  0.666399D-01
     13 -0.219376D-02 -0.108323D-02  0.309014D+00
     14 -0.536324D-02 -0.267279D-02 -0.107228D+00  0.953914D-01
     15  0.269585D-03  0.268441D-03 -0.214864D-01 -0.144329D-02  0.759080D-01
     16  0.000000D+00  0.000000D+00  0.000000D+00 -0.150740D-05  0.000000D+00
     17 -0.820536D-04  0.000000D+00 -0.208906D-03 -0.506070D-03  0.000000D+00
     18  0.000000D+00  0.000000D+00  0.000000D+00  0.000000D+00  0.000000D+00
     19  0.690897D-04  0.000000D+00  0.175901D-03  0.426114D-03  0.000000D+00
     20  0.435403D-04  0.000000D+00  0.110852D-03  0.268537D-03  0.000000D+00
     21  0.000000D+00  0.000000D+00  0.000000D+00  0.000000D+00  0.000000D+00
     22 -0.172351D-03  0.000000D+00 -0.438801D-03 -0.106298D-02  0.000000D+00
     23  0.100195D-03  0.000000D+00  0.255093D-03  0.617955D-03  0.000000D+00
     24  0.000000D+00  0.000000D+00  0.000000D+00  0.000000D+00  0.000000D+00
               16            17            18            19            20 
     16  0.350877D+00
     17 -0.821606D-03  0.507432D-01
     18 -0.177385D-02  0.112105D-01  0.711467D-01
     19  0.916150D-04  0.320404D-01 -0.591559D-03  0.133916D+00
     20  0.577260D-04  0.201846D-01 -0.370960D-03 -0.132818D+00  0.261216D+00
     21  0.000000D+00 -0.628713D-03  0.159258D-03  0.110496D-01  0.379004D-02
     22 -0.263245D-03 -0.145035D-01 -0.340608D-01  0.112021D-01  0.728218D-02
     23  0.312654D-04  0.680567D-02  0.170173D-02 -0.747021D-02 -0.503053D-02
     24  0.467999D-04  0.624839D-03  0.695610D-02  0.368172D-03  0.306353D-03
               21            22            23            24 
     21  0.702947D-01
     22  0.192596D-01  0.819573D-01
     23 -0.279304D-01  0.138200D-01  0.961737D-01
     24  0.643143D-02  0.511496D-01  0.885707D-01  0.289192D+00
 Force constants in internal coordinates: 
                1             2             3             4             5 
      1  0.162834D+00
      2  0.000000D+00  0.343346D+00
      3  0.000000D+00  0.000000D+00  0.346133D+00
      4  0.000000D+00  0.000000D+00  0.000000D+00  0.354887D+00
      5  0.000000D+00  0.000000D+00  0.000000D+00  0.000000D+00  0.350891D+00
      6  0.000000D+00  0.000000D+00  0.000000D+00  0.000000D+00  0.000000D+00
      7  0.000000D+00  0.000000D+00  0.000000D+00  0.000000D+00  0.000000D+00
      8  0.000000D+00  0.000000D+00  0.000000D+00  0.000000D+00  0.000000D+00
      9  0.000000D+00  0.000000D+00  0.000000D+00  0.000000D+00  0.000000D+00
     10  0.000000D+00  0.000000D+00  0.000000D+00  0.000000D+00  0.000000D+00
     11  0.000000D+00  0.000000D+00  0.000000D+00  0.000000D+00  0.000000D+00
     12  0.000000D+00  0.000000D+00  0.000000D+00  0.000000D+00  0.000000D+00
     13  0.000000D+00  0.000000D+00  0.000000D+00  0.000000D+00  0.000000D+00
     14  0.000000D+00  0.000000D+00  0.000000D+00  0.000000D+00  0.000000D+00
     15  0.000000D+00  0.000000D+00  0.000000D+00  0.000000D+00  0.000000D+00
     16  0.000000D+00  0.000000D+00  0.000000D+00  0.000000D+00  0.000000D+00
     17  0.000000D+00  0.000000D+00  0.000000D+00  0.000000D+00  0.000000D+00
     18  0.000000D+00  0.000000D+00  0.000000D+00  0.000000D+00  0.000000D+00
                6             7             8             9            10 
      6  0.344874D+00
      7  0.000000D+00  0.334661D+00
      8  0.000000D+00  0.000000D+00  0.306079D+00
      9  0.000000D+00  0.000000D+00  0.191146D-01  0.282524D+00
     10  0.000000D+00  0.000000D+00  0.140806D+00  0.113795D-02  0.313046D+00
     11  0.000000D+00  0.000000D+00  0.000000D+00  0.000000D+00  0.000000D+00
     12  0.000000D+00  0.000000D+00  0.000000D+00  0.000000D+00  0.000000D+00
     13  0.000000D+00  0.000000D+00  0.000000D+00  0.000000D+00  0.000000D+00
     14  0.000000D+00  0.000000D+00  0.416998D-02 -0.784821D-01 -0.732381D-02
     15  0.000000D+00  0.000000D+00  0.204566D-01  0.121668D-01  0.400174D-01
     16  0.000000D+00  0.000000D+00  0.000000D+00  0.000000D+00  0.000000D+00
     17  0.000000D+00  0.000000D+00  0.000000D+00  0.000000D+00  0.000000D+00
     18  0.000000D+00  0.000000D+00  0.000000D+00  0.000000D+00  0.000000D+00
               11            12            13            14            15 
     11  0.300494D+00
     12  0.676019D-03  0.299685D+00
     13  0.732909D-01  0.680894D-01  0.256384D+00
     14  0.000000D+00  0.000000D+00  0.000000D+00  0.219659D+00
     15  0.000000D+00  0.000000D+00  0.000000D+00 -0.159102D+00  0.212469D+00
     16  0.238737D-02 -0.245809D-02 -0.283277D-03  0.690000D-02  0.690000D-02
     17 -0.296365D-02  0.484864D-01  0.502636D-02  0.230000D-02  0.230000D-02
     18  0.526848D-01 -0.536132D-01  0.127496D-02  0.230000D-02  0.230000D-02
               16            17            18 
     16  0.482966D-01
     17  0.256351D-01  0.214437D+00
     18 -0.320370D-02 -0.280796D-01  0.526234D-01
 Leave Link  716 at Wed May 26 19:12:27 2021, MaxMem=   13107200 cpu:       0.0
 (Enter /programs/64bit/g09/g09-gfortran/bin/l103.exe)

 GradGradGradGradGradGradGradGradGradGradGradGradGradGradGradGradGradGrad
 Berny optimization.
 Search for a local minimum.
 Step number   1 out of a maximum of    2
 All quantities printed in internal units (Hartrees-Bohrs-Radians)
 Second derivative matrix not updated -- first step.
 The second derivative matrix:
                          d1        a1        t1        d2        a2
           d1           0.16283
           a1          -0.00000   0.30608
           t1          -0.00000   0.00417   0.21966
           d2          -0.00000   0.00000  -0.00000   0.34335
           a2          -0.00000   0.01911  -0.07848  -0.00000   0.28252
           t2          -0.00000   0.02046  -0.15910  -0.00000   0.01217
           d3           0.00000  -0.00000  -0.00000  -0.00000  -0.00000
           d4          -0.00000   0.00000   0.00000   0.00000  -0.00000
           a3          -0.00000   0.14081  -0.00732  -0.00000   0.00114
           d5           0.00000  -0.00000  -0.00000  -0.00000   0.00000
           a4           0.00000  -0.00000  -0.00000   0.00000  -0.00000
           t3          -0.00000   0.00000   0.00690  -0.00000  -0.00000
           d6           0.00000  -0.00000  -0.00000   0.00000   0.00000
           a5           0.00000  -0.00000   0.00000  -0.00000  -0.00000
           t4           0.00000  -0.00000   0.00230  -0.00000  -0.00000
           d7          -0.00000  -0.00000  -0.00000  -0.00000  -0.00000
           a6          -0.00000  -0.00000  -0.00000  -0.00000   0.00000
           t5           0.00000  -0.00000   0.00230   0.00000   0.00000
                          t2        d3        d4        a3        d5
           t2           0.21247
           d3           0.00000   0.34613
           d4           0.00000   0.00000   0.35489
           a3           0.04002   0.00000  -0.00000   0.31305
           d5          -0.00000  -0.00000   0.00000   0.00000   0.35089
           a4          -0.00000   0.00000  -0.00000  -0.00000   0.00000
           t3           0.00690   0.00000  -0.00000   0.00000   0.00000
           d6          -0.00000  -0.00000  -0.00000  -0.00000  -0.00000
           a5           0.00000   0.00000   0.00000   0.00000  -0.00000
           t4           0.00230  -0.00000  -0.00000  -0.00000  -0.00000
           d7          -0.00000  -0.00000   0.00000   0.00000   0.00000
           a6          -0.00000   0.00000  -0.00000  -0.00000   0.00000
           t5           0.00230   0.00000  -0.00000   0.00000   0.00000
                          a4        t3        d6        a5        t4
           a4           0.30049
           t3           0.00239   0.04830
           d6           0.00000  -0.00000   0.34487
           a5           0.00068  -0.00246   0.00000   0.29969
           t4          -0.00296   0.02564  -0.00000   0.04849   0.21444
           d7          -0.00000  -0.00000   0.00000  -0.00000   0.00000
           a6           0.07329  -0.00028   0.00000   0.06809   0.00503
           t5           0.05268  -0.00320   0.00000  -0.05361  -0.02808
                          d7        a6        t5
           d7           0.33466
           a6           0.00000   0.25638
           t5          -0.00000   0.00127   0.05262
     Eigenvalues --- 1000.000001000.000001000.000001000.000001000.00000
     Eigenvalues --- 1000.000001000.000001000.000001000.000001000.00000
     Eigenvalues --- 1000.000001000.000001000.000001000.000001000.00000
     Eigenvalues --- 1000.000001000.000001000.00000
 Angle between quadratic step and forces=  90.00 degrees.
 Linear search not attempted -- first point.
 Variable       Old X    -DE/DX   Delta X   Delta X   Delta X     New X
                                 (Linear)    (Quad)   (Total)
    d1        3.28506  -0.00125   0.00000   0.00000   0.00000   3.28506
    a1        2.61828  -0.04486   0.00000   0.00000   0.00000   2.61828
    t1        1.72258   0.01660   0.00000   0.00000   0.00000   1.72258
    d2        2.06769  -0.00069   0.00000   0.00000   0.00000   2.06769
    a2        1.54022   0.01066   0.00000   0.00000   0.00000   1.54022
    t2       -2.75010   0.01736   0.00000   0.00000   0.00000  -2.75010
    d3        2.06307   0.00334   0.00000   0.00000   0.00000   2.06307
    d4        2.04889   0.00059   0.00000   0.00000   0.00000   2.04889
    a3        1.50169   0.08575   0.00000   0.00000   0.00000   1.50169
    d5        2.05530  -0.00006   0.00000   0.00000   0.00000   2.05530
    a4        1.57726   0.02516   0.00000   0.00000   0.00000   1.57726
    t3        3.13861  -0.00156   0.00000   0.00000   0.00000   3.13861
    d6        2.06515  -0.00028   0.00000   0.00000   0.00000   2.06515
    a5        1.58057   0.04124   0.00000   0.00000   0.00000   1.58057
    t4        2.13610  -0.04944   0.00000   0.00000   0.00000   2.13610
    d7        2.08241   0.00026   0.00000   0.00000   0.00000   2.08241
    a6        2.72327  -0.09721   0.00000   0.00000   0.00000   2.72327
    t5       -2.09440   0.00012   0.00000   0.00000   0.00000  -2.09440
         Item               Value     Threshold  Converged?
 Maximum Force            0.000000     0.000450     YES
 RMS     Force            0.000000     0.000300     YES
 Maximum Displacement     0.000000     0.001800     YES
 RMS     Displacement     0.000000     0.001200     YES
 Predicted change in Energy=-0.000000D+00
 Optimization completed.
    -- Stationary point found.
                       ----------------------------
                       !   Optimized Parameters   !
                       ! (Angstroms and Degrees)  !
 ----------------------                            ----------------------
 !      Name          Value   Derivative information (Atomic Units)     !
 ------------------------------------------------------------------------
 !       d1          1.7384   -DE/DX =   -0.0013                        !
 !       a1        150.0165   -DE/DX =   -0.0449                        !
 !       t1         98.6964   -DE/DX =    0.0166                        !
 !       d2          1.0942   -DE/DX =   -0.0007                        !
 !       a2         88.248    -DE/DX =    0.0107                        !
 !       t2       -157.5691   -DE/DX =    0.0174                        !
 !       d3          1.0917   -DE/DX =    0.0033                        !
 !       d4          1.0842   -DE/DX =    0.0006                        !
 !       a3         86.0405   -DE/DX =    0.0857                        !
 !       d5          1.0876   -DE/DX =   -0.0001                        !
 !       a4         90.3701   -DE/DX =    0.0252                        !
 !       t3        179.8293   -DE/DX =   -0.0016                        !
 !       d6          1.0928   -DE/DX =   -0.0003                        !
 !       a5         90.5602   -DE/DX =    0.0412                        !
 !       t4        122.3898   -DE/DX =   -0.0494                        !
 !       d7          1.102    -DE/DX =    0.0003                        !
 !       a6        156.0321   -DE/DX =   -0.0972                        !
 !       t5       -120.0005   -DE/DX =    0.0001                        !
 ------------------------------------------------------------------------
 GradGradGradGradGradGradGradGradGradGradGradGradGradGradGradGradGradGrad

 Leave Link  103 at Wed May 26 19:12:27 2021, MaxMem=   13107200 cpu:       0.0
 (Enter /programs/64bit/g09/g09-gfortran/bin/l9999.exe)
 1\1\GINC-MOLMOD\Force\RB3LYP\6-31+G(d,p)\C2H6\OSPITE\26-May-2021\1\\#p
  b3lyp/6-31+g(d,p) force nosym\\c2h6 molecule\\0,1\C\C,1,d1\H,1,d2,2,a
 1\H,1,d3,2,a2,3,t1,0\H,1,d4,2,a3,3,t2,0\H,2,d5,1,a4,3,t3,0\H,2,d6,1,a5
 ,6,t4,0\H,2,d7,1,a6,6,t5,0\\d1=1.73837894\a1=150.01653017\t1=98.696443
 95\d2=1.09417479\a2=88.24803389\t2=-157.56911117\d3=1.09173143\d4=1.08
 422452\a3=86.04048354\d5=1.08762046\a4=90.37014327\t3=179.82933737\d6=
 1.09283189\a5=90.56020553\t4=122.38978954\d7=1.10196149\a6=156.0321068
 1\t5=-120.0004817\\Version=EM64L-G09RevA.02\HF=-79.7201207\RMSD=3.046e
 -09\RMSF=2.186e-02\Dipole=-0.1055515,-0.2131183,-0.0071088\Quadrupole=
 0.0374955,-0.6610302,0.6235347,-0.7837658,-0.5479821,0.1308842\PG=C01 
 [X(C2H6)]\\@


      THE ONE-EYED VIEW OF OUR UNIVERSE SAYS YOU MUST NOT LOOK
      FAR AFIELD FOR PROBLEMS.  SUCH PROBLEMS MAY NEVER ARRIVE. 
      INSTEAD, TEND TO THE WOLF WITHIN YOUR FENCES.
      THE PACKS RANGING OUTSIDE MAY NOT EVEN EXIST.

                              -- THE AZHAR BOOK SHAMRA I:4
                                 CHILDREN OF DUNE, BY FRANK HERBERT
 Job cpu time:  0 days  0 hours  0 minutes  9.0 seconds.
 File lengths (MBytes):  RWF=      5 Int=      0 D2E=      0 Chk=      1 Scr=      1
 Normal termination of Gaussian 09 at Wed May 26 19:12:27 2021.
