 Entering Gaussian System, Link 0=g09
 Input=c2h6_003.com
 Output=c2h6_003.log
 Initial command:
 /programs/64bit/g09/g09-gfortran/bin/l1.exe /data/scratch/Gau-5892.inp -scrdir=/data/scratch/
 Entering Link 1 = /programs/64bit/g09/g09-gfortran/bin/l1.exe PID=      5893.
  
 Copyright (c) 1988,1990,1992,1993,1995,1998,2003,2009, Gaussian, Inc.
                  All Rights Reserved.
  
 This is part of the Gaussian(R) 09 program.  It is based on
 the Gaussian(R) 03 system (copyright 2003, Gaussian, Inc.),
 the Gaussian(R) 98 system (copyright 1998, Gaussian, Inc.),
 the Gaussian(R) 94 system (copyright 1995, Gaussian, Inc.),
 the Gaussian 92(TM) system (copyright 1992, Gaussian, Inc.),
 the Gaussian 90(TM) system (copyright 1990, Gaussian, Inc.),
 the Gaussian 88(TM) system (copyright 1988, Gaussian, Inc.),
 the Gaussian 86(TM) system (copyright 1986, Carnegie Mellon
 University), and the Gaussian 82(TM) system (copyright 1983,
 Carnegie Mellon University). Gaussian is a federally registered
 trademark of Gaussian, Inc.
  
 This software contains proprietary and confidential information,
 including trade secrets, belonging to Gaussian, Inc.
  
 This software is provided under written license and may be
 used, copied, transmitted, or stored only in accord with that
 written license.
  
 The following legend is applicable only to US Government
 contracts under FAR:
  
                    RESTRICTED RIGHTS LEGEND
  
 Use, reproduction and disclosure by the US Government is
 subject to restrictions as set forth in subparagraphs (a)
 and (c) of the Commercial Computer Software - Restricted
 Rights clause in FAR 52.227-19.
  
 Gaussian, Inc.
 340 Quinnipiac St., Bldg. 40, Wallingford CT 06492
  
  
 ---------------------------------------------------------------
 Warning -- This program may not be used in any manner that
 competes with the business of Gaussian, Inc. or will provide
 assistance to any competitor of Gaussian, Inc.  The licensee
 of this program is prohibited from giving any competitor of
 Gaussian, Inc. access to this program.  By using this program,
 the user acknowledges that Gaussian, Inc. is engaged in the
 business of creating and licensing software in the field of
 computational chemistry and represents and warrants to the
 licensee that it is not a competitor of Gaussian, Inc. and that
 it will not use this program in any manner prohibited above.
 ---------------------------------------------------------------
  

 Cite this work as:
 Gaussian 09, Revision A.02,
 M. J. Frisch, G. W. Trucks, H. B. Schlegel, G. E. Scuseria, 
 M. A. Robb, J. R. Cheeseman, G. Scalmani, V. Barone, B. Mennucci, 
 G. A. Petersson, H. Nakatsuji, M. Caricato, X. Li, H. P. Hratchian, 
 A. F. Izmaylov, J. Bloino, G. Zheng, J. L. Sonnenberg, M. Hada, 
 M. Ehara, K. Toyota, R. Fukuda, J. Hasegawa, M. Ishida, T. Nakajima, 
 Y. Honda, O. Kitao, H. Nakai, T. Vreven, J. A. Montgomery, Jr., 
 J. E. Peralta, F. Ogliaro, M. Bearpark, J. J. Heyd, E. Brothers, 
 K. N. Kudin, V. N. Staroverov, R. Kobayashi, J. Normand, 
 K. Raghavachari, A. Rendell, J. C. Burant, S. S. Iyengar, J. Tomasi, 
 M. Cossi, N. Rega, J. M. Millam, M. Klene, J. E. Knox, J. B. Cross, 
 V. Bakken, C. Adamo, J. Jaramillo, R. Gomperts, R. E. Stratmann, 
 O. Yazyev, A. J. Austin, R. Cammi, C. Pomelli, J. W. Ochterski, 
 R. L. Martin, K. Morokuma, V. G. Zakrzewski, G. A. Voth, 
 P. Salvador, J. J. Dannenberg, S. Dapprich, A. D. Daniels, 
 O. Farkas, J. B. Foresman, J. V. Ortiz, J. Cioslowski, 
 and D. J. Fox, Gaussian, Inc., Wallingford CT, 2009.
 
 ******************************************
 Gaussian 09:  EM64L-G09RevA.02 11-Jun-2009
                26-May-2021 
 ******************************************
 %chk=c2h6_003.chk
 %mem=100MB
 --------------------------------
 #p b3lyp/6-31+g(d,p) force nosym
 --------------------------------
 1/10=7,30=1,38=1/1,3;
 2/12=2,15=1,17=6,18=5,40=1/2;
 3/5=1,6=6,7=111,11=2,16=1,25=1,30=1,71=1,74=-5/1,2,3;
 4//1;
 5/5=2,38=5/2;
 6/7=2,8=2,9=2,10=2,28=1/1;
 7/29=1,30=1/1,2,3,16;
 1/10=7,30=1/3;
 99//99;
 Leave Link    1 at Wed May 26 19:07:46 2021, MaxMem=   13107200 cpu:       0.0
 (Enter /programs/64bit/g09/g09-gfortran/bin/l101.exe)
 -------------
 c2h6 molecule
 -------------
 Symbolic Z-matrix:
 Charge =  0 Multiplicity = 1
 C1
 C2                   1    d1
 H3                   1    d2       2    a1
 H4                   1    d3       2    a2       3    t1       0
 H5                   1    d4       2    a3       3    t2       0
 H6                   2    d5       1    a4       3    t3       0
 H7                   2    d6       1    a5       6    t4       0
 H8                   2    d7       1    a6       6    t5       0
       Variables:
       Constants:
  d1                    3.49292                  
  a1                  178.99362                  
  t1                  119.99641                  
  d2                    1.1328                   
  a2                  109.99766                  
  t2                 -178.99619                  
  d3                    1.20836                  
  d4                    1.17238                  
  a3                  108.99706                  
  d5                    1.11183                  
  a4                  108.99838                  
  t3                  179.99998                  
  d6                    1.12086                  
  a5                  108.99827                  
  t4                  119.99979                  
  d7                    1.15953                  
  a6                  178.99434                  
  t5                 -120.                       
 
 NAtoms=      8 NQM=      8 NQMF=      0 NMic=      0 NMicF=      0 NTot=      8.
                    Isotopes and Nuclear Properties:
 (Nuclear quadrupole moments (NQMom) in fm**2, nuclear magnetic moments (NMagM)
  in nuclear magnetons)

  Atom         1           2           3           4           5           6           7           8
 IAtWgt=          12          12           1           1           1           1           1           1
 AtmWgt=  12.0000000  12.0000000   1.0078250   1.0078250   1.0078250   1.0078250   1.0078250   1.0078250
 NucSpn=           0           0           1           1           1           1           1           1
 AtZEff=   0.0000000   0.0000000   0.0000000   0.0000000   0.0000000   0.0000000   0.0000000   0.0000000
 NQMom=    0.0000000   0.0000000   0.0000000   0.0000000   0.0000000   0.0000000   0.0000000   0.0000000
 NMagM=    0.0000000   0.0000000   2.7928460   2.7928460   2.7928460   2.7928460   2.7928460   2.7928460
 Leave Link  101 at Wed May 26 19:07:46 2021, MaxMem=   13107200 cpu:       0.0
 (Enter /programs/64bit/g09/g09-gfortran/bin/l103.exe)

 GradGradGradGradGradGradGradGradGradGradGradGradGradGradGradGradGradGrad
 Berny optimization.
 Initialization pass.
                       ----------------------------
                       !    Initial Parameters    !
                       ! (Angstroms and Degrees)  !
 ----------------------                            ----------------------
 !      Name          Value   Derivative information (Atomic Units)     !
 ------------------------------------------------------------------------
 !       d1          3.4929   Frozen                                    !
 !       a1        178.9936   Frozen                                    !
 !       t1        119.9964   Frozen                                    !
 !       d2          1.1328   Frozen                                    !
 !       a2        109.9977   Frozen                                    !
 !       t2       -178.9962   Frozen                                    !
 !       d3          1.2084   Frozen                                    !
 !       d4          1.1724   Frozen                                    !
 !       a3        108.9971   Frozen                                    !
 !       d5          1.1118   Frozen                                    !
 !       a4        108.9984   Frozen                                    !
 !       t3        180.0      Frozen                                    !
 !       d6          1.1209   Frozen                                    !
 !       a5        108.9983   Frozen                                    !
 !       t4        119.9998   Frozen                                    !
 !       d7          1.1595   Frozen                                    !
 !       a6        178.9943   Frozen                                    !
 !       t5       -120.0      Frozen                                    !
 ------------------------------------------------------------------------
 Trust Radius=3.00D-01 FncErr=1.00D-07 GrdErr=1.00D-07
 Number of steps in this run=   2 maximum allowed number of steps=   2.
 GradGradGradGradGradGradGradGradGradGradGradGradGradGradGradGradGradGrad

 Leave Link  103 at Wed May 26 19:07:46 2021, MaxMem=   13107200 cpu:       0.0
 (Enter /programs/64bit/g09/g09-gfortran/bin/l202.exe)
                          Input orientation:                          
 ---------------------------------------------------------------------
 Center     Atomic      Atomic             Coordinates (Angstroms)
 Number     Number       Type             X           Y           Z
 ---------------------------------------------------------------------
      1          6           0        0.000000    0.000000    0.000000
      2          6           0        0.000000    0.000000    3.492924
      3          1           0        0.019896    0.000000   -1.132626
      4          1           0       -0.567690   -0.983410   -0.413237
      5          1           0       -1.108353    0.019420   -0.381632
      6          1           0       -1.051261    0.000000    3.854869
      7          1           0        0.529901   -0.917824    3.857810
      8          1           0        0.010176    0.017625    4.652272
 ---------------------------------------------------------------------
                    Distance matrix (angstroms):
                    1          2          3          4          5
     1  C    0.000000
     2  C    3.492924   0.000000
     3  H    1.132801   4.625593   0.000000
     4  H    1.208359   4.067857   1.352728   0.000000
     5  H    1.172376   4.030013   1.355477   1.139730   0.000000
     6  H    3.995644   1.111825   5.101224   4.406548   4.236930
     7  H    4.000737   1.120865   5.099702   4.410311   4.640600
     8  H    4.652316   1.159526   5.784933   5.195707   5.156675
                    6          7          8
     6  H    0.000000
     7  H    1.828246   0.000000
     8  H    1.327709   1.332797   0.000000
 Symmetry turned off by external request.
 Stoichiometry    C2H6
 Framework group  C1[X(C2H6)]
 Deg. of freedom    18
 Full point group                 C1      NOp   1
 Rotational constants (GHZ):    113.5727243      4.5917720      4.5482841
 Leave Link  202 at Wed May 26 19:07:46 2021, MaxMem=   13107200 cpu:       0.0
 (Enter /programs/64bit/g09/g09-gfortran/bin/l301.exe)
 Standard basis: 6-31+G(d,p) (6D, 7F)
 Ernie: Thresh=  0.10000D-02 Tol=  0.10000D-05 Strict=F.
 Integral buffers will be    131072 words long.
 Raffenetti 2 integral format.
 Two-electron integral symmetry is turned off.
    68 basis functions,   106 primitive gaussians,    68 cartesian basis functions
     9 alpha electrons        9 beta electrons
       nuclear repulsion energy        29.8582064017 Hartrees.
 IExCor=  402 DFT=T Ex+Corr=B3LYP ExCW=0 ScaHFX=  0.200000
 ScaDFX=  0.800000  0.720000  1.000000  0.810000 ScalE2=  1.000000  1.000000
 IRadAn=      0 IRanWt=     -1 IRanGd=            0 ICorTp=0
 NAtoms=    8 NActive=    8 NUniq=    8 SFac= 7.50D-01 NAtFMM=   80 NAOKFM=F Big=F
 Leave Link  301 at Wed May 26 19:07:46 2021, MaxMem=   13107200 cpu:       0.0
 (Enter /programs/64bit/g09/g09-gfortran/bin/l302.exe)
 NPDir=0 NMtPBC=     1 NCelOv=     1 NCel=       1 NClECP=     1 NCelD=      1
         NCelK=      1 NCelE2=     1 NClLst=     1 CellRange=     0.0.
 One-electron integrals computed using PRISM.
 NBasis=    68 RedAO= T  NBF=    68
 NBsUse=    68 1.00D-06 NBFU=    68
 Precomputing XC quadrature grid using
 IXCGrd= 2 IRadAn=           0 IRanWt=          -1 IRanGd=           0 AccXCQ= 1.00D-10.
 NRdTot=     518 NPtTot=       65392 NUsed=       69135 NTot=       69167
 NSgBfM=    68    68    68    68    68 NAtAll=     8     8.
 Leave Link  302 at Wed May 26 19:07:46 2021, MaxMem=   13107200 cpu:       0.1
 (Enter /programs/64bit/g09/g09-gfortran/bin/l303.exe)
 DipDrv:  MaxL=1.
 Leave Link  303 at Wed May 26 19:07:46 2021, MaxMem=   13107200 cpu:       0.0
 (Enter /programs/64bit/g09/g09-gfortran/bin/l401.exe)
 Harris functional with IExCor=  402 diagonalized for initial guess.
 ExpMin= 4.38D-02 ExpMax= 3.05D+03 ExpMxC= 4.57D+02 IAcc=2 IRadAn=         0 AccDes= 0.00D+00
 HarFok:  IExCor=  402 AccDes= 0.00D+00 IRadAn=         0 IDoV= 1
 ScaDFX=  1.000000  1.000000  1.000000  1.000000
 FoFCou: FMM=F IPFlag=           0 FMFlag=      100000 FMFlg1=           0
         NFxFlg=           0 DoJE=T BraDBF=F KetDBF=T FulRan=T
         Omega=  0.000000  0.000000  1.000000  0.000000  0.000000 ICntrl=     500 IOpCl=  0
         NMat0=    1 NMatS0=    1 NMatT0=    0 NMatD0=    1 NMtDS0=    0 NMtDT0=    0
         I1Cent=           4 NGrid=           0.
 Symmetry not used in FoFCou.
 Harris En= -79.4233045602503    
 Leave Link  401 at Wed May 26 19:07:47 2021, MaxMem=   13107200 cpu:       0.6
 (Enter /programs/64bit/g09/g09-gfortran/bin/l502.exe)
 Closed shell SCF:
 Requested convergence on RMS density matrix=1.00D-08 within 128 cycles.
 Requested convergence on MAX density matrix=1.00D-06.
 Requested convergence on             energy=1.00D-06.
 No special actions if energy rises.
 Using DIIS extrapolation, IDIIS=  1040.
 Two-electron integral symmetry not used.
        69050 words used for storage of precomputed grid.
 Keep R1 ints in memory in canonical form, NReq=3743435.
 IEnd=      101900 IEndB=      101900 NGot=    13107200 MDV=    10273574
 LenX=    10273574 LenY=    10268509
 Symmetry not used in FoFDir.
 MinBra= 0 MaxBra= 2 Meth= 1.
 IRaf=       0 NMat=   1 IRICut=       1 DoRegI=T DoRafI=F ISym2E= 0 JSym2E=0.

 Cycle   1  Pass 1  IDiag  1:
 E= -79.0205681263881    
 DIIS: error= 4.48D-02 at cycle   1 NSaved=   1.
 NSaved= 1 IEnMin= 1 EnMin= -79.0205681263881     IErMin= 1 ErrMin= 4.48D-02
 ErrMax= 4.48D-02 EMaxC= 1.00D-01 BMatC= 1.59D-01 BMatP= 1.59D-01
 IDIUse=3 WtCom= 5.52D-01 WtEn= 4.48D-01
 Coeff-Com:  0.100D+01
 Coeff-En:   0.100D+01
 Coeff:      0.100D+01
 Gap=    -0.468 Goal=   None    Shift=    0.000
 GapD=   -0.468 DampG=0.250 DampE=0.500 DampFc=0.2500 IDamp=-1.
 Damping current iteration by 2.50D-01
 RMSDP=6.16D-02 MaxDP=1.58D+00              OVMax= 9.96D-01

 Cycle   2  Pass 1  IDiag  1:
 E= -78.8645982696015     Delta-E=        0.155969856787 Rises=F Damp=T
 DIIS: error= 2.41D-02 at cycle   2 NSaved=   2.
 NSaved= 2 IEnMin= 1 EnMin= -79.0205681263881     IErMin= 2 ErrMin= 2.41D-02
 ErrMax= 2.41D-02 EMaxC= 1.00D-01 BMatC= 3.07D-02 BMatP= 1.59D-01
 IDIUse=3 WtCom= 7.59D-01 WtEn= 2.41D-01
 Coeff-Com:  0.114D+00 0.886D+00
 Coeff-En:   0.638D+00 0.362D+00
 Coeff:      0.240D+00 0.760D+00
 Gap=    -0.423 Goal=   None    Shift=    0.000
 RMSDP=1.78D-02 MaxDP=3.59D-01 DE= 1.56D-01 OVMax= 9.99D-01

 Cycle   3  Pass 1  IDiag  1:
 E= -79.1093299584285     Delta-E=       -0.244731688827 Rises=F Damp=F
 DIIS: error= 3.25D-02 at cycle   3 NSaved=   3.
 NSaved= 3 IEnMin= 3 EnMin= -79.1093299584285     IErMin= 2 ErrMin= 2.41D-02
 ErrMax= 3.25D-02 EMaxC= 1.00D-01 BMatC= 6.61D-02 BMatP= 3.07D-02
 IDIUse=2 WtCom= 0.00D+00 WtEn= 1.00D+00
 EnCoef did     4 forward-backward iterations
 Coeff-En:   0.346D-01 0.272D+00 0.694D+00
 Coeff:      0.346D-01 0.272D+00 0.694D+00
 Gap=    -0.041 Goal=   None    Shift=    0.000
 RMSDP=1.58D-02 MaxDP=2.75D-01 DE=-2.45D-01 OVMax= 9.90D-01

 Cycle   4  Pass 1  IDiag  1:
 E= -78.5919665779568     Delta-E=        0.517363380472 Rises=F Damp=F
 DIIS: error= 5.71D-02 at cycle   4 NSaved=   4.
 NSaved= 4 IEnMin= 3 EnMin= -79.1093299584285     IErMin= 2 ErrMin= 2.41D-02
 ErrMax= 5.71D-02 EMaxC= 1.00D-01 BMatC= 3.62D-01 BMatP= 3.07D-02
 IDIUse=2 WtCom= 0.00D+00 WtEn= 1.00D+00
 EnCoef did    10 forward-backward iterations
 Coeff-En:   0.451D-01 0.000D+00 0.622D+00 0.333D+00
 Coeff:      0.451D-01 0.000D+00 0.622D+00 0.333D+00
 Gap=     0.010 Goal=   None    Shift=    0.000
 RMSDP=1.01D-02 MaxDP=1.23D-01 DE= 5.17D-01 OVMax= 5.90D-01

 Cycle   5  Pass 1  IDiag  1:
 E= -79.1759663022398     Delta-E=       -0.583999724283 Rises=F Damp=F
 DIIS: error= 4.59D-02 at cycle   5 NSaved=   5.
 NSaved= 5 IEnMin= 5 EnMin= -79.1759663022398     IErMin= 2 ErrMin= 2.41D-02
 ErrMax= 4.59D-02 EMaxC= 1.00D-01 BMatC= 5.84D-02 BMatP= 3.07D-02
 IDIUse=2 WtCom= 0.00D+00 WtEn= 1.00D+00
 EnCoef did    11 forward-backward iterations
 Coeff-En:   0.485D-01 0.000D+00 0.403D+00 0.000D+00 0.548D+00
 Coeff:      0.485D-01 0.000D+00 0.403D+00 0.000D+00 0.548D+00
 Gap=     0.006 Goal=   None    Shift=    0.000
 RMSDP=1.06D-02 MaxDP=1.42D-01 DE=-5.84D-01 OVMax= 7.24D-01

 Cycle   6  Pass 1  IDiag  1:
 E= -79.2223163890656     Delta-E=       -0.046350086826 Rises=F Damp=F
 DIIS: error= 2.47D-02 at cycle   6 NSaved=   6.
 NSaved= 6 IEnMin= 6 EnMin= -79.2223163890656     IErMin= 2 ErrMin= 2.41D-02
 ErrMax= 2.47D-02 EMaxC= 1.00D-01 BMatC= 4.99D-02 BMatP= 3.07D-02
 IDIUse=2 WtCom= 0.00D+00 WtEn= 1.00D+00
 Coeff-En:   0.000D+00 0.000D+00 0.000D+00 0.000D+00 0.455D+00 0.545D+00
 Coeff:      0.000D+00 0.000D+00 0.000D+00 0.000D+00 0.455D+00 0.545D+00
 Gap=     0.017 Goal=   None    Shift=    0.000
 RMSDP=7.72D-03 MaxDP=1.24D-01 DE=-4.64D-02 OVMax= 3.47D-01

 Cycle   7  Pass 1  IDiag  1:
 E= -79.3022212256415     Delta-E=       -0.079904836576 Rises=F Damp=F
 DIIS: error= 1.86D-02 at cycle   7 NSaved=   7.
 NSaved= 7 IEnMin= 7 EnMin= -79.3022212256415     IErMin= 7 ErrMin= 1.86D-02
 ErrMax= 1.86D-02 EMaxC= 1.00D-01 BMatC= 3.16D-02 BMatP= 3.07D-02
 IDIUse=3 WtCom= 8.14D-01 WtEn= 1.86D-01
 EnCoef did     7 forward-backward iterations
 Coeff-Com: -0.895D-01 0.142D+00 0.415D-01 0.273D-02 0.169D+00 0.477D+00
 Coeff-Com:  0.258D+00
 Coeff-En:   0.000D+00 0.000D+00 0.000D+00 0.000D+00 0.913D-03 0.352D+00
 Coeff-En:   0.647D+00
 Coeff:     -0.729D-01 0.115D+00 0.338D-01 0.222D-02 0.138D+00 0.454D+00
 Coeff:      0.330D+00
 Gap=     0.024 Goal=   None    Shift=    0.000
 RMSDP=5.23D-03 MaxDP=5.92D-02 DE=-7.99D-02 OVMax= 2.41D-01

 Cycle   8  Pass 1  IDiag  1:
 E= -79.3064213342251     Delta-E=       -0.004200108584 Rises=F Damp=F
 DIIS: error= 1.90D-02 at cycle   8 NSaved=   8.
 NSaved= 8 IEnMin= 8 EnMin= -79.3064213342251     IErMin= 7 ErrMin= 1.86D-02
 ErrMax= 1.90D-02 EMaxC= 1.00D-01 BMatC= 1.97D-02 BMatP= 3.07D-02
 IDIUse=3 WtCom= 8.14D-01 WtEn= 1.86D-01
 Coeff-Com: -0.495D-01 0.905D-01-0.267D-01-0.272D-01 0.102D+00-0.729D-01
 Coeff-Com:  0.286D+00 0.698D+00
 Coeff-En:   0.000D+00 0.000D+00 0.000D+00 0.000D+00 0.000D+00 0.000D+00
 Coeff-En:   0.485D+00 0.515D+00
 Coeff:     -0.403D-01 0.737D-01-0.218D-01-0.221D-01 0.835D-01-0.593D-01
 Coeff:      0.323D+00 0.664D+00
 Gap=     0.037 Goal=   None    Shift=    0.000
 RMSDP=9.92D-04 MaxDP=1.98D-02 DE=-4.20D-03 OVMax= 5.63D-02

 Cycle   9  Pass 1  IDiag  1:
 E= -79.3187508600940     Delta-E=       -0.012329525869 Rises=F Damp=F
 DIIS: error= 1.64D-02 at cycle   9 NSaved=   9.
 NSaved= 9 IEnMin= 9 EnMin= -79.3187508600940     IErMin= 9 ErrMin= 1.64D-02
 ErrMax= 1.64D-02 EMaxC= 1.00D-01 BMatC= 1.47D-02 BMatP= 1.97D-02
 IDIUse=3 WtCom= 8.36D-01 WtEn= 1.64D-01
 Coeff-Com: -0.119D-01 0.701D-01-0.303D-01-0.228D-01 0.641D-01-0.191D+00
 Coeff-Com:  0.288D+00 0.280D+00 0.554D+00
 Coeff-En:   0.000D+00 0.000D+00 0.000D+00 0.000D+00 0.000D+00 0.000D+00
 Coeff-En:   0.433D+00 0.000D+00 0.567D+00
 Coeff:     -0.993D-02 0.586D-01-0.253D-01-0.191D-01 0.535D-01-0.159D+00
 Coeff:      0.312D+00 0.234D+00 0.556D+00
 Gap=     0.037 Goal=   None    Shift=    0.000
 RMSDP=6.39D-04 MaxDP=1.56D-02 DE=-1.23D-02 OVMax= 3.71D-02

 Cycle  10  Pass 1  IDiag  1:
 E= -79.3288526562954     Delta-E=       -0.010101796201 Rises=F Damp=F
 DIIS: error= 1.36D-02 at cycle  10 NSaved=  10.
 NSaved=10 IEnMin=10 EnMin= -79.3288526562954     IErMin=10 ErrMin= 1.36D-02
 ErrMax= 1.36D-02 EMaxC= 1.00D-01 BMatC= 9.96D-03 BMatP= 1.47D-02
 IDIUse=3 WtCom= 8.64D-01 WtEn= 1.36D-01
 Coeff-Com: -0.428D-01 0.630D-01 0.639D-02-0.123D-01 0.108D-01 0.202D+00
 Coeff-Com:  0.138D+00 0.666D-01-0.339D+01 0.396D+01
 Coeff-En:   0.000D+00 0.000D+00 0.000D+00 0.000D+00 0.000D+00 0.000D+00
 Coeff-En:   0.369D+00 0.000D+00 0.000D+00 0.631D+00
 Coeff:     -0.370D-01 0.544D-01 0.553D-02-0.106D-01 0.929D-02 0.175D+00
 Coeff:      0.170D+00 0.575D-01-0.293D+01 0.351D+01
 Gap=     0.034 Goal=   None    Shift=    0.000
 RMSDP=1.54D-03 MaxDP=3.42D-02 DE=-1.01D-02 OVMax= 9.68D-02

 Cycle  11  Pass 1  IDiag  1:
 E= -79.3455717709726     Delta-E=       -0.016719114677 Rises=F Damp=F
 DIIS: error= 4.61D-03 at cycle  11 NSaved=  11.
 NSaved=11 IEnMin=11 EnMin= -79.3455717709726     IErMin=11 ErrMin= 4.61D-03
 ErrMax= 4.61D-03 EMaxC= 1.00D-01 BMatC= 1.08D-03 BMatP= 9.96D-03
 IDIUse=3 WtCom= 9.54D-01 WtEn= 4.61D-02
 Coeff-Com: -0.301D-01 0.202D-01 0.974D-02-0.299D-02-0.285D-02 0.175D+00
 Coeff-Com: -0.288D-01 0.126D-01-0.147D+01 0.985D+00 0.133D+01
 Coeff-En:   0.000D+00 0.000D+00 0.000D+00 0.000D+00 0.000D+00 0.000D+00
 Coeff-En:   0.908D-01 0.000D+00 0.000D+00 0.000D+00 0.909D+00
 Coeff:     -0.287D-01 0.193D-01 0.929D-02-0.285D-02-0.272D-02 0.167D+00
 Coeff:     -0.232D-01 0.120D-01-0.140D+01 0.939D+00 0.131D+01
 Gap=     0.032 Goal=   None    Shift=    0.000
 RMSDP=1.20D-03 MaxDP=2.79D-02 DE=-1.67D-02 OVMax= 7.34D-02

 Cycle  12  Pass 1  IDiag  1:
 E= -79.3470828461089     Delta-E=       -0.001511075136 Rises=F Damp=F
 DIIS: error= 2.69D-03 at cycle  12 NSaved=  12.
 NSaved=12 IEnMin=12 EnMin= -79.3470828461089     IErMin=12 ErrMin= 2.69D-03
 ErrMax= 2.69D-03 EMaxC= 1.00D-01 BMatC= 3.96D-04 BMatP= 1.08D-03
 IDIUse=3 WtCom= 9.73D-01 WtEn= 2.69D-02
 Coeff-Com: -0.667D-02 0.913D-02 0.365D-02-0.363D-02 0.682D-02-0.747D-03
 Coeff-Com: -0.793D-02-0.268D-01-0.123D+00 0.274D+00 0.178D+00 0.697D+00
 Coeff-En:   0.000D+00 0.000D+00 0.000D+00 0.000D+00 0.000D+00 0.000D+00
 Coeff-En:   0.000D+00 0.000D+00 0.000D+00 0.000D+00 0.325D+00 0.675D+00
 Coeff:     -0.649D-02 0.889D-02 0.355D-02-0.354D-02 0.664D-02-0.727D-03
 Coeff:     -0.772D-02-0.261D-01-0.119D+00 0.266D+00 0.182D+00 0.696D+00
 Gap=     0.035 Goal=   None    Shift=    0.000
 RMSDP=5.69D-04 MaxDP=1.21D-02 DE=-1.51D-03 OVMax= 3.26D-02

 Cycle  13  Pass 1  IDiag  1:
 E= -79.3474541040069     Delta-E=       -0.000371257898 Rises=F Damp=F
 DIIS: error= 1.76D-03 at cycle  13 NSaved=  13.
 NSaved=13 IEnMin=13 EnMin= -79.3474541040069     IErMin=13 ErrMin= 1.76D-03
 ErrMax= 1.76D-03 EMaxC= 1.00D-01 BMatC= 1.48D-04 BMatP= 3.96D-04
 IDIUse=3 WtCom= 9.82D-01 WtEn= 1.76D-02
 Coeff-Com:  0.908D-03-0.401D-03-0.110D-02 0.439D-03 0.621D-03-0.137D-02
 Coeff-Com: -0.159D-01 0.589D-01-0.322D-01-0.707D-01-0.159D+00 0.277D+00
 Coeff-Com:  0.943D+00
 Coeff-En:   0.000D+00 0.000D+00 0.000D+00 0.000D+00 0.000D+00 0.000D+00
 Coeff-En:   0.000D+00 0.000D+00 0.000D+00 0.000D+00 0.000D+00 0.383D+00
 Coeff-En:   0.617D+00
 Coeff:      0.892D-03-0.394D-03-0.108D-02 0.431D-03 0.610D-03-0.135D-02
 Coeff:     -0.157D-01 0.579D-01-0.316D-01-0.695D-01-0.156D+00 0.279D+00
 Coeff:      0.937D+00
 Gap=     0.034 Goal=   None    Shift=    0.000
 RMSDP=4.08D-04 MaxDP=8.34D-03 DE=-3.71D-04 OVMax= 2.18D-02

 Cycle  14  Pass 1  IDiag  1:
 E= -79.3477558057327     Delta-E=       -0.000301701726 Rises=F Damp=F
 DIIS: error= 1.92D-04 at cycle  14 NSaved=  14.
 NSaved=14 IEnMin=14 EnMin= -79.3477558057327     IErMin=14 ErrMin= 1.92D-04
 ErrMax= 1.92D-04 EMaxC= 1.00D-01 BMatC= 2.26D-06 BMatP= 1.48D-04
 IDIUse=3 WtCom= 9.98D-01 WtEn= 1.92D-03
 Coeff-Com:  0.149D-02-0.409D-03-0.318D-03 0.522D-03 0.163D-03-0.862D-02
 Coeff-Com: -0.235D-02 0.666D-01-0.355D-01-0.442D-01-0.115D+00-0.134D+00
 Coeff-Com:  0.227D+00 0.105D+01
 Coeff-En:   0.000D+00 0.000D+00 0.000D+00 0.000D+00 0.000D+00 0.000D+00
 Coeff-En:   0.000D+00 0.000D+00 0.000D+00 0.000D+00 0.000D+00 0.000D+00
 Coeff-En:   0.000D+00 0.100D+01
 Coeff:      0.149D-02-0.409D-03-0.317D-03 0.521D-03 0.163D-03-0.860D-02
 Coeff:     -0.235D-02 0.664D-01-0.355D-01-0.441D-01-0.115D+00-0.134D+00
 Coeff:      0.226D+00 0.105D+01
 Gap=     0.034 Goal=   None    Shift=    0.000
 RMSDP=1.91D-04 MaxDP=2.10D-03 DE=-3.02D-04 OVMax= 1.36D-02

 Cycle  15  Pass 1  IDiag  1:
 E= -79.3477628486023     Delta-E=       -0.000007042870 Rises=F Damp=F
 DIIS: error= 3.13D-04 at cycle  15 NSaved=  15.
 NSaved=15 IEnMin=15 EnMin= -79.3477628486023     IErMin=14 ErrMin= 1.92D-04
 ErrMax= 3.13D-04 EMaxC= 1.00D-01 BMatC= 5.16D-06 BMatP= 2.26D-06
 IDIUse=3 WtCom= 9.98D-01 WtEn= 1.92D-03
 Coeff-Com: -0.376D-03 0.173D-04-0.245D-03-0.109D-03 0.183D-03-0.312D-02
 Coeff-Com: -0.668D-03 0.258D-01 0.486D-01-0.105D+00 0.148D-01 0.116D-01
 Coeff-Com: -0.215D+00-0.497D+00 0.172D+01
 Coeff-En:   0.000D+00 0.000D+00 0.000D+00 0.000D+00 0.000D+00 0.000D+00
 Coeff-En:   0.000D+00 0.000D+00 0.000D+00 0.000D+00 0.000D+00 0.000D+00
 Coeff-En:   0.000D+00 0.000D+00 0.100D+01
 Coeff:     -0.375D-03 0.173D-04-0.244D-03-0.109D-03 0.183D-03-0.312D-02
 Coeff:     -0.667D-03 0.257D-01 0.485D-01-0.105D+00 0.147D-01 0.116D-01
 Coeff:     -0.215D+00-0.496D+00 0.172D+01
 Gap=     0.034 Goal=   None    Shift=    0.000
 RMSDP=2.35D-04 MaxDP=2.89D-03 DE=-7.04D-06 OVMax= 1.46D-02

 Cycle  16  Pass 1  IDiag  1:
 E= -79.3477781717970     Delta-E=       -0.000015323195 Rises=F Damp=F
 DIIS: error= 9.35D-05 at cycle  16 NSaved=  16.
 NSaved=16 IEnMin=16 EnMin= -79.3477781717970     IErMin=16 ErrMin= 9.35D-05
 ErrMax= 9.35D-05 EMaxC= 1.00D-01 BMatC= 4.23D-07 BMatP= 2.26D-06
 IDIUse=1 WtCom= 1.00D+00 WtEn= 0.00D+00
 Coeff-Com: -0.203D-03-0.553D-05-0.100D-03-0.481D-04 0.823D-04 0.894D-03
 Coeff-Com:  0.110D-02 0.124D-02-0.653D-03-0.484D-02 0.101D-01-0.742D-02
 Coeff-Com:  0.323D-02-0.256D+00 0.184D+00 0.107D+01
 Coeff:     -0.203D-03-0.553D-05-0.100D-03-0.481D-04 0.823D-04 0.894D-03
 Coeff:      0.110D-02 0.124D-02-0.653D-03-0.484D-02 0.101D-01-0.742D-02
 Coeff:      0.323D-02-0.256D+00 0.184D+00 0.107D+01
 Gap=     0.034 Goal=   None    Shift=    0.000
 RMSDP=5.89D-05 MaxDP=6.33D-04 DE=-1.53D-05 OVMax= 4.22D-03

 Cycle  17  Pass 1  IDiag  1:
 E= -79.3477793521731     Delta-E=       -0.000001180376 Rises=F Damp=F
 DIIS: error= 1.41D-05 at cycle  17 NSaved=  17.
 NSaved=17 IEnMin=17 EnMin= -79.3477793521731     IErMin=17 ErrMin= 1.41D-05
 ErrMax= 1.41D-05 EMaxC= 1.00D-01 BMatC= 9.50D-09 BMatP= 4.23D-07
 IDIUse=1 WtCom= 1.00D+00 WtEn= 0.00D+00
 Coeff-Com: -0.597D-05 0.348D-05-0.208D-05-0.505D-05 0.307D-04 0.807D-04
 Coeff-Com:  0.119D-03-0.231D-03-0.880D-03 0.123D-02-0.942D-04-0.309D-02
 Coeff-Com:  0.170D-01-0.660D-03-0.658D-01 0.293D-03 0.105D+01
 Coeff:     -0.597D-05 0.348D-05-0.208D-05-0.505D-05 0.307D-04 0.807D-04
 Coeff:      0.119D-03-0.231D-03-0.880D-03 0.123D-02-0.942D-04-0.309D-02
 Coeff:      0.170D-01-0.660D-03-0.658D-01 0.293D-03 0.105D+01
 Gap=     0.034 Goal=   None    Shift=    0.000
 RMSDP=9.54D-06 MaxDP=1.00D-04 DE=-1.18D-06 OVMax= 6.87D-04

 Cycle  18  Pass 1  IDiag  1:
 E= -79.3477793744830     Delta-E=       -0.000000022310 Rises=F Damp=F
 DIIS: error= 9.35D-06 at cycle  18 NSaved=  18.
 NSaved=18 IEnMin=18 EnMin= -79.3477793744830     IErMin=18 ErrMin= 9.35D-06
 ErrMax= 9.35D-06 EMaxC= 1.00D-01 BMatC= 4.10D-09 BMatP= 9.50D-09
 IDIUse=1 WtCom= 1.00D+00 WtEn= 0.00D+00
 Coeff-Com:  0.992D-07 0.433D-06-0.371D-05 0.918D-06-0.689D-05-0.134D-04
 Coeff-Com: -0.287D-04 0.813D-05 0.422D-03-0.509D-03-0.233D-03 0.681D-03
 Coeff-Com: -0.255D-03-0.111D-03-0.118D-01 0.112D-02 0.113D+00 0.898D+00
 Coeff:      0.992D-07 0.433D-06-0.371D-05 0.918D-06-0.689D-05-0.134D-04
 Coeff:     -0.287D-04 0.813D-05 0.422D-03-0.509D-03-0.233D-03 0.681D-03
 Coeff:     -0.255D-03-0.111D-03-0.118D-01 0.112D-02 0.113D+00 0.898D+00
 Gap=     0.034 Goal=   None    Shift=    0.000
 RMSDP=3.08D-06 MaxDP=4.88D-05 DE=-2.23D-08 OVMax= 1.62D-04

 Cycle  19  Pass 1  IDiag  1:
 E= -79.3477793824645     Delta-E=       -0.000000007981 Rises=F Damp=F
 DIIS: error= 1.04D-06 at cycle  19 NSaved=  19.
 NSaved=19 IEnMin=19 EnMin= -79.3477793824645     IErMin=19 ErrMin= 1.04D-06
 ErrMax= 1.04D-06 EMaxC= 1.00D-01 BMatC= 5.10D-11 BMatP= 4.10D-09
 IDIUse=1 WtCom= 1.00D+00 WtEn= 0.00D+00
 Coeff-Com: -0.640D-06 0.113D-05-0.422D-06 0.177D-06-0.109D-05 0.625D-05
 Coeff-Com: -0.982D-05-0.228D-05-0.183D-04 0.317D-04-0.859D-04 0.190D-03
 Coeff-Com: -0.207D-03 0.258D-02-0.435D-02-0.103D-01-0.174D-01 0.229D+00
 Coeff-Com:  0.801D+00
 Coeff:     -0.640D-06 0.113D-05-0.422D-06 0.177D-06-0.109D-05 0.625D-05
 Coeff:     -0.982D-05-0.228D-05-0.183D-04 0.317D-04-0.859D-04 0.190D-03
 Coeff:     -0.207D-03 0.258D-02-0.435D-02-0.103D-01-0.174D-01 0.229D+00
 Coeff:      0.801D+00
 Gap=     0.034 Goal=   None    Shift=    0.000
 RMSDP=4.45D-07 MaxDP=4.86D-06 DE=-7.98D-09 OVMax= 3.20D-05

 Cycle  20  Pass 1  IDiag  1:
 E= -79.3477793825524     Delta-E=       -0.000000000088 Rises=F Damp=F
 DIIS: error= 3.60D-07 at cycle  20 NSaved=  20.
 NSaved=20 IEnMin=20 EnMin= -79.3477793825524     IErMin=20 ErrMin= 3.60D-07
 ErrMax= 3.60D-07 EMaxC= 1.00D-01 BMatC= 6.74D-12 BMatP= 5.10D-11
 IDIUse=1 WtCom= 1.00D+00 WtEn= 0.00D+00
 Coeff-Com: -0.125D-06 0.219D-06 0.413D-06-0.162D-06 0.833D-06 0.127D-05
 Coeff-Com:  0.108D-05-0.496D-05-0.641D-04 0.101D-03-0.189D-04-0.636D-04
 Coeff-Com: -0.199D-04 0.522D-03 0.215D-03-0.120D-02-0.126D-01-0.103D-01
 Coeff-Com:  0.157D+00 0.867D+00
 Coeff:     -0.125D-06 0.219D-06 0.413D-06-0.162D-06 0.833D-06 0.127D-05
 Coeff:      0.108D-05-0.496D-05-0.641D-04 0.101D-03-0.189D-04-0.636D-04
 Coeff:     -0.199D-04 0.522D-03 0.215D-03-0.120D-02-0.126D-01-0.103D-01
 Coeff:      0.157D+00 0.867D+00
 Gap=     0.034 Goal=   None    Shift=    0.000
 RMSDP=1.21D-07 MaxDP=2.01D-06 DE=-8.80D-11 OVMax= 6.06D-06

 Cycle  21  Pass 1  IDiag  1:
 E= -79.3477793825624     Delta-E=       -0.000000000010 Rises=F Damp=F
 DIIS: error= 1.88D-07 at cycle  21 NSaved=  20.
 NSaved=20 IEnMin=20 EnMin= -79.3477793825624     IErMin=20 ErrMin= 1.88D-07
 ErrMax= 1.88D-07 EMaxC= 1.00D-01 BMatC= 1.70D-12 BMatP= 6.74D-12
 IDIUse=1 WtCom= 1.00D+00 WtEn= 0.00D+00
 Coeff-Com: -0.746D-07 0.344D-07-0.489D-08-0.684D-07 0.598D-06 0.472D-06
 Coeff-Com:  0.726D-06-0.114D-04 0.127D-04-0.692D-07 0.317D-05-0.860D-05
 Coeff-Com: -0.573D-04 0.333D-03 0.110D-02-0.121D-02-0.196D-01 0.120D-01
 Coeff-Com: -0.342D-03 0.101D+01
 Coeff:     -0.746D-07 0.344D-07-0.489D-08-0.684D-07 0.598D-06 0.472D-06
 Coeff:      0.726D-06-0.114D-04 0.127D-04-0.692D-07 0.317D-05-0.860D-05
 Coeff:     -0.573D-04 0.333D-03 0.110D-02-0.121D-02-0.196D-01 0.120D-01
 Coeff:     -0.342D-03 0.101D+01
 Gap=     0.034 Goal=   None    Shift=    0.000
 RMSDP=8.02D-08 MaxDP=8.35D-07 DE=-9.99D-12 OVMax= 5.78D-06

 Cycle  22  Pass 1  IDiag  1:
 E= -79.3477793825657     Delta-E=       -0.000000000003 Rises=F Damp=F
 DIIS: error= 1.25D-08 at cycle  22 NSaved=  20.
 NSaved=20 IEnMin=20 EnMin= -79.3477793825657     IErMin=20 ErrMin= 1.25D-08
 ErrMax= 1.25D-08 EMaxC= 1.00D-01 BMatC= 7.56D-15 BMatP= 1.70D-12
 IDIUse=1 WtCom= 1.00D+00 WtEn= 0.00D+00
 Large coefficients: NSaved= 20 BigCof=    0.00 CofMax=   10.00 Det=-4.96D-16
 Inversion failed.  Reducing to 19 matrices.
 Large coefficients: NSaved= 19 BigCof=    0.00 CofMax=   10.00 Det=-5.43D-16
 Inversion failed.  Reducing to 18 matrices.
 Large coefficients: NSaved= 18 BigCof=    0.00 CofMax=   10.00 Det=-5.51D-16
 Inversion failed.  Reducing to 17 matrices.
 Large coefficients: NSaved= 17 BigCof=    0.00 CofMax=   10.00 Det=-5.84D-16
 Inversion failed.  Reducing to 16 matrices.
 Large coefficients: NSaved= 16 BigCof=    0.00 CofMax=   10.00 Det=-6.41D-16
 Inversion failed.  Reducing to 15 matrices.
 Coeff-Com: -0.718D-06 0.610D-06 0.596D-06 0.603D-07 0.597D-06-0.223D-06
 Coeff-Com: -0.301D-04-0.158D-04 0.681D-04 0.305D-03-0.210D-02-0.334D-02
 Coeff-Com: -0.495D-01-0.338D-01 0.109D+01
 Coeff:     -0.718D-06 0.610D-06 0.596D-06 0.603D-07 0.597D-06-0.223D-06
 Coeff:     -0.301D-04-0.158D-04 0.681D-04 0.305D-03-0.210D-02-0.334D-02
 Coeff:     -0.495D-01-0.338D-01 0.109D+01
 Gap=     0.034 Goal=   None    Shift=    0.000
 RMSDP=5.79D-09 MaxDP=8.00D-08 DE=-3.31D-12 OVMax= 3.53D-07

 SCF Done:  E(RB3LYP) =  -79.3477793826     A.U. after   22 cycles
             Convg  =    0.5795D-08             -V/T =  2.0119
 KE= 7.841648976133D+01 PE=-2.420851165290D+02 EE= 5.446264098334D+01
 Leave Link  502 at Wed May 26 19:07:59 2021, MaxMem=   13107200 cpu:      11.6
 (Enter /programs/64bit/g09/g09-gfortran/bin/l601.exe)
 Copying SCF densities to generalized density rwf, IOpCl= 0 IROHF=0.

 **********************************************************************

            Population analysis using the SCF density.

 **********************************************************************

 Alpha  occ. eigenvalues --  -10.27854 -10.22486  -0.75481  -0.71441  -0.45362
 Alpha  occ. eigenvalues --   -0.34644  -0.33244  -0.28168  -0.26990
 Alpha virt. eigenvalues --   -0.23592  -0.01176   0.01312   0.05254   0.06299
 Alpha virt. eigenvalues --    0.07576   0.08900   0.09374   0.11040   0.12539
 Alpha virt. eigenvalues --    0.14284   0.16057   0.19811   0.21586   0.22950
 Alpha virt. eigenvalues --    0.58962   0.61407   0.63665   0.68167   0.69525
 Alpha virt. eigenvalues --    0.77816   0.81419   0.84905   0.86808   0.88620
 Alpha virt. eigenvalues --    0.93234   0.98000   1.03756   1.05997   1.25967
 Alpha virt. eigenvalues --    1.33330   1.34864   1.44498   1.70555   1.73121
 Alpha virt. eigenvalues --    1.81553   1.82255   1.85319   1.90083   2.11866
 Alpha virt. eigenvalues --    2.14978   2.31535   2.32076   2.35740   2.43366
 Alpha virt. eigenvalues --    2.45924   2.56451   2.60765   2.68361   2.70530
 Alpha virt. eigenvalues --    2.95744   2.98094   3.00504   3.26155   3.27125
 Alpha virt. eigenvalues --    3.30327   3.31976   4.24635   4.32232
          Condensed to atoms (all electrons):
              1          2          3          4          5          6
     1  C    5.547351   0.032915   0.333762   0.215783   0.251660  -0.009801
     2  C    0.032915   5.336271  -0.000017   0.002199  -0.000401   0.369665
     3  H    0.333762  -0.000017   0.691745  -0.067015  -0.079970   0.000020
     4  H    0.215783   0.002199  -0.067015   0.876246  -0.071131   0.000037
     5  H    0.251660  -0.000401  -0.079970  -0.071131   0.832092   0.000117
     6  H   -0.009801   0.369665   0.000020   0.000037   0.000117   0.565823
     7  H   -0.010478   0.368797   0.000020   0.000029   0.000051  -0.039214
     8  H    0.005631   0.206675  -0.000001  -0.000002  -0.000002  -0.062029
              7          8
     1  C   -0.010478   0.005631
     2  C    0.368797   0.206675
     3  H    0.000020  -0.000001
     4  H    0.000029  -0.000002
     5  H    0.000051  -0.000002
     6  H   -0.039214  -0.062029
     7  H    0.566793  -0.061395
     8  H   -0.061395   0.811872
 Mulliken atomic charges:
              1
     1  C   -0.366822
     2  C   -0.316103
     3  H    0.121457
     4  H    0.043855
     5  H    0.067583
     6  H    0.175382
     7  H    0.175397
     8  H    0.099251
 Sum of Mulliken atomic charges =   0.00000
 Mulliken charges with hydrogens summed into heavy atoms:
              1
     1  C   -0.133928
     2  C    0.133928
 Sum of Mulliken charges with hydrogens summed into heavy atoms =   0.00000
 Electronic spatial extent (au):  <R**2>=            492.1532
 Charge=              0.0000 electrons
 Dipole moment (field-independent basis, Debye):
    X=             -1.1010    Y=             -1.0413    Z=              2.7898  Tot=              3.1748
 Quadrupole moment (field-independent basis, Debye-Ang):
   XX=            -16.6606   YY=            -18.4189   ZZ=              2.0292
   XY=              0.3279   XZ=             -0.4757   YZ=             -2.1305
 Traceless Quadrupole moment (field-independent basis, Debye-Ang):
   XX=             -5.6438   YY=             -7.4022   ZZ=             13.0460
   XY=              0.3279   XZ=             -0.4757   YZ=             -2.1305
 Octapole moment (field-independent basis, Debye-Ang**2):
  XXX=              3.6715  YYY=              3.8662  ZZZ=             -3.2137  XYY=              1.9821
  XXY=              0.5667  XXZ=            -25.6099  XZZ=             -6.2176  YZZ=            -11.2560
  YYZ=            -27.1323  XYZ=             -2.0571
 Hexadecapole moment (field-independent basis, Debye-Ang**3):
 XXXX=            -36.1827 YYYY=            -36.1640 ZZZZ=           -331.4827 XXXY=              0.2639
 XXXZ=             -0.6369 YYYX=             -0.4306 YYYZ=              2.7735 ZZZX=            -30.2977
 ZZZY=            -51.7105 XXYY=            -12.0518 XXZZ=           -106.6495 YYZZ=           -114.6685
 XXYZ=              1.1071 YYXZ=              2.3789 ZZXY=             -7.1181
 N-N= 2.985820640172D+01 E-N=-2.420851165900D+02  KE= 7.841648976133D+01
 No NMR shielding tensors so no spin-rotation constants.
 Leave Link  601 at Wed May 26 19:07:59 2021, MaxMem=   13107200 cpu:       0.1
 (Enter /programs/64bit/g09/g09-gfortran/bin/l701.exe)
 Compute integral first derivatives.
 ... and contract with generalized density number  0.
 Leave Link  701 at Wed May 26 19:07:59 2021, MaxMem=   13107200 cpu:       0.1
 (Enter /programs/64bit/g09/g09-gfortran/bin/l702.exe)
 L702 exits ... SP integral derivatives will be done elsewhere.
 Leave Link  702 at Wed May 26 19:07:59 2021, MaxMem=   13107200 cpu:       0.0
 (Enter /programs/64bit/g09/g09-gfortran/bin/l703.exe)
 Compute integral first derivatives, UseDBF=F ICtDFT=           0.
 Integral derivatives from FoFDir, PRISM(SPDF).
 Calling FoFJK, ICntrl=      2127 FMM=F ISym2X=0 I1Cent= 0 IOpClX= 0 NMat=1 NMatS=1 NMatT=0.
 FoFCou: FMM=F IPFlag=           0 FMFlag=      100000 FMFlg1=         800
         NFxFlg=           0 DoJE=F BraDBF=F KetDBF=F FulRan=T
         Omega=  0.000000  0.000000  1.000000  0.000000  0.000000 ICntrl=    2127 IOpCl=  0
         NMat0=    1 NMatS0=    1 NMatT0=    0 NMatD0=    1 NMtDS0=    0 NMtDT0=    0
         I1Cent=           0 NGrid=           0.
 Symmetry not used in FoFCou.
 Leave Link  703 at Wed May 26 19:08:01 2021, MaxMem=   13107200 cpu:       1.1
 (Enter /programs/64bit/g09/g09-gfortran/bin/l716.exe)
 Dipole        =-4.33162696D-01-4.09669225D-01 1.09759362D+00
 -------------------------------------------------------------------
 Center     Atomic                   Forces (Hartrees/Bohr)
 Number     Number              X              Y              Z
 -------------------------------------------------------------------
      1        6          -0.107842707   -0.058066441   -0.105280387
      2        6          -0.028898984   -0.060628149    0.088580003
      3        1           0.078869582    0.037335911    0.001694760
      4        1           0.045369244   -0.034222613    0.053428253
      5        1          -0.015280820    0.058227631    0.063283610
      6        1          -0.015418292    0.012168788   -0.052181504
      7        1           0.015082368   -0.003012823   -0.052976501
      8        1           0.028119608    0.048197696    0.003451765
 -------------------------------------------------------------------
 Cartesian Forces:  Max     0.107842707 RMS     0.053638701
 -----------------------------------------------------------------------------------------------
                       Internal Coordinate Forces (Hartree/Bohr or radian)
  Cent   Atom   N1       Length/X         N2         Alpha/Y        N3         Beta/Z          J
 -----------------------------------------------------------------------------------------------
      1  C 
      2  C        1  -0.013126(     1)
      3  H        1  -0.000309(     2)      2  -0.168873(     8)
      4  H        1  -0.011734(     3)      2  -0.120078(     9)      3  -0.121026(    14)     0
      5  H        1  -0.005189(     4)      2  -0.144321(    10)      3   0.121396(    15)     0
      6  H        2  -0.002409(     5)      1  -0.114209(    11)      3  -0.001042(    16)     0
      7  H        2  -0.007649(     6)      1  -0.113098(    12)      6   0.023142(    17)     0
      8  H        2   0.004431(     7)      1  -0.122117(    13)      6  -0.000010(    18)     0
 -----------------------------------------------------------------------------------------------
 Internal  Forces:  Max     0.168872500 RMS     0.086555921
 Force constants in Cartesian coordinates: 
                1             2             3             4             5 
      1  0.826100D+00
      2 -0.716223D+00  0.963053D+01
      3  0.127995D+00  0.716974D-01  0.489128D+00
      4 -0.156436D+01  0.322359D+01  0.151602D-01  0.667992D+01
      5  0.101538D+01 -0.408603D+01  0.854077D-02 -0.421810D+01  0.365255D+01
      6 -0.536533D-02 -0.914007D-02 -0.103337D-01 -0.716589D-01 -0.119773D+00
      7 -0.926933D-01 -0.812181D-03 -0.439793D-01  0.136737D-01 -0.134241D-02
      8  0.454184D+00 -0.677224D+01 -0.263019D-01 -0.180688D+01  0.262891D+01
      9  0.369443D-02 -0.142672D-04 -0.303777D+00  0.240200D-03 -0.235814D-04
     10 -0.824424D-01 -0.975284D-01 -0.377341D-01 -0.240944D-01  0.160181D-01
     11 -0.732703D-01 -0.154809D+00 -0.436365D-01  0.160147D-01 -0.560179D-02
     12 -0.429741D-01 -0.703034D-01 -0.849680D-01 -0.501134D-02 -0.867404D-02
     13 -0.237919D+00  0.458565D-02 -0.614416D-01  0.414560D-02 -0.324343D-03
     14 -0.284799D-01 -0.333667D-01 -0.102998D-01  0.324410D-01 -0.154285D-01
     15 -0.887153D-01 -0.137972D-02 -0.900495D-01 -0.103890D-01  0.156859D-03
     16  0.376030D-02  0.000000D+00  0.000000D+00 -0.285974D+00  0.670848D-02
     17 -0.516798D-03 -0.363716D-01  0.000000D+00 -0.209337D-01 -0.528755D-01
     18  0.109217D-01 -0.274924D-05  0.000000D+00  0.110666D+00  0.194843D-01
     19  0.397219D-02  0.341251D-01  0.000000D+00 -0.109701D+00  0.673763D-01
     20  0.138961D-03  0.234313D-01  0.000000D+00  0.103548D+00 -0.234844D+00
     21 -0.541902D-02  0.938072D-02  0.000000D+00 -0.373372D-01  0.103178D+00
     22  0.114359D+01 -0.244773D+01  0.000000D+00 -0.471361D+01  0.311428D+01
     23 -0.651216D+00  0.142885D+01  0.000000D+00  0.267032D+01 -0.188668D+01
     24 -0.137345D-03 -0.237893D-03  0.000000D+00 -0.166978D-02 -0.288956D-02
                6             7             8             9            10 
      6  0.517726D+00
      7  0.000000D+00  0.862146D-01
      8  0.000000D+00  0.105497D-01  0.491943D+01
      9  0.000000D+00 -0.380824D-02  0.185321D-03  0.302937D+00
     10  0.000000D+00  0.383529D-02 -0.926397D-02  0.673727D-04  0.834932D-01
     11  0.000000D+00 -0.882424D-02 -0.582577D-02 -0.155011D-03  0.770207D-01
     12  0.000000D+00  0.157309D-01  0.265905D-01  0.276337D-03  0.326056D-01
     13  0.000000D+00 -0.110303D-01  0.330039D-03 -0.193765D-03 -0.129435D-02
     14  0.000000D+00  0.429146D-03  0.952271D-02  0.753860D-05  0.255871D-01
     15  0.000000D+00  0.320567D-01 -0.473931D-03  0.563125D-03  0.506117D-02
     16  0.719307D-01  0.000000D+00  0.000000D+00  0.000000D+00  0.000000D+00
     17  0.289128D-01  0.000000D+00  0.307926D-01  0.000000D+00  0.467280D-03
     18 -0.115155D+00  0.000000D+00  0.000000D+00  0.000000D+00  0.000000D+00
     19 -0.989280D-02  0.000000D+00 -0.264522D-01  0.000000D+00 -0.401414D-03
     20  0.745014D-01  0.000000D+00 -0.152720D-01  0.000000D+00 -0.231754D-03
     21 -0.112997D+00  0.000000D+00  0.000000D+00  0.000000D+00  0.000000D+00
     22  0.149864D-01  0.000000D+00  0.137753D+01  0.000000D+00  0.209041D-01
     23  0.254990D-01  0.000000D+00 -0.795318D+00  0.000000D+00 -0.120690D-01
     24 -0.279241D+00  0.000000D+00  0.000000D+00  0.000000D+00  0.000000D+00
               11            12            13            14            15 
     11  0.176334D+00
     12  0.472514D-01  0.834107D-01
     13  0.894703D-03 -0.351057D-03  0.246523D+00
     14 -0.169286D-01  0.513556D-02 -0.573124D-02  0.422071D-01
     15 -0.345989D-02  0.128089D-02  0.619865D-01  0.515668D-02  0.882055D-01
     16  0.000000D+00  0.000000D+00  0.000000D+00  0.000000D+00  0.000000D+00
     17 -0.269745D-03  0.000000D+00 -0.968238D-05 -0.552596D-03  0.000000D+00
     18  0.000000D+00  0.000000D+00  0.000000D+00  0.000000D+00  0.000000D+00
     19  0.231723D-03  0.000000D+00  0.831757D-05  0.474704D-03  0.000000D+00
     20  0.133784D-03  0.000000D+00  0.480211D-05  0.274068D-03  0.000000D+00
     21  0.000000D+00  0.000000D+00  0.000000D+00  0.000000D+00  0.000000D+00
     22 -0.120673D-01  0.000000D+00 -0.433148D-03 -0.247208D-01  0.000000D+00
     23  0.696704D-02  0.000000D+00  0.250078D-03  0.142726D-01  0.000000D+00
     24  0.000000D+00  0.000000D+00  0.000000D+00  0.000000D+00  0.000000D+00
               16            17            18            19            20 
     16  0.298348D+00
     17 -0.489141D-02  0.398515D-01
     18 -0.747263D-01 -0.142066D-01  0.107035D+00
     19 -0.480519D-02  0.264817D-01 -0.139566D-01  0.106047D+00
     20 -0.170304D-02  0.950044D-02 -0.494645D-02 -0.110950D+00  0.223048D+00
     21  0.269450D-02 -0.145605D-01  0.782613D-02  0.240247D-01 -0.695696D-01
     22 -0.113290D-01 -0.597337D-03 -0.329047D-01  0.488009D-02  0.919310D-02
     23 -0.113088D-03  0.992489D-02 -0.328474D-03  0.871264D-02 -0.627191D-02
     24  0.101153D-03 -0.145636D-03  0.293796D-03 -0.175283D-03  0.146588D-04
               21            22            23            24 
     21  0.104879D+00
     22  0.160370D-01  0.355600D+01
     23 -0.284290D-01 -0.201589D+01  0.122826D+01
     24  0.291424D-03  0.188125D-02  0.325843D-02  0.278656D+00
 Force constants in internal coordinates: 
                1             2             3             4             5 
      1  0.103337D-01
      2  0.000000D+00  0.303004D+00
      3  0.000000D+00  0.000000D+00  0.240651D+00
      4  0.000000D+00  0.000000D+00  0.000000D+00  0.267967D+00
      5  0.000000D+00  0.000000D+00  0.000000D+00  0.000000D+00  0.324076D+00
      6  0.000000D+00  0.000000D+00  0.000000D+00  0.000000D+00  0.000000D+00
      7  0.000000D+00  0.000000D+00  0.000000D+00  0.000000D+00  0.000000D+00
      8  0.000000D+00  0.000000D+00  0.000000D+00  0.000000D+00  0.000000D+00
      9  0.000000D+00  0.000000D+00  0.000000D+00  0.000000D+00  0.000000D+00
     10  0.000000D+00  0.000000D+00  0.000000D+00  0.000000D+00  0.000000D+00
     11  0.000000D+00  0.000000D+00  0.000000D+00  0.000000D+00  0.000000D+00
     12  0.000000D+00  0.000000D+00  0.000000D+00  0.000000D+00  0.000000D+00
     13  0.000000D+00  0.000000D+00  0.000000D+00  0.000000D+00  0.000000D+00
     14  0.000000D+00  0.000000D+00  0.000000D+00  0.000000D+00  0.000000D+00
     15  0.000000D+00  0.000000D+00  0.000000D+00  0.000000D+00  0.000000D+00
     16  0.000000D+00  0.000000D+00  0.000000D+00  0.000000D+00  0.000000D+00
     17  0.000000D+00  0.000000D+00  0.000000D+00  0.000000D+00  0.000000D+00
     18  0.000000D+00  0.000000D+00  0.000000D+00  0.000000D+00  0.000000D+00
                6             7             8             9            10 
      6  0.314763D+00
      7  0.000000D+00  0.278722D+00
      8  0.000000D+00  0.000000D+00  0.394774D+00
      9  0.000000D+00  0.000000D+00  0.818419D-01  0.326336D+00
     10  0.000000D+00  0.000000D+00  0.160815D+00  0.729294D-02  0.328365D+00
     11  0.000000D+00  0.000000D+00  0.000000D+00  0.000000D+00  0.000000D+00
     12  0.000000D+00  0.000000D+00  0.000000D+00  0.000000D+00  0.000000D+00
     13  0.000000D+00  0.000000D+00  0.000000D+00  0.000000D+00  0.000000D+00
     14  0.000000D+00  0.000000D+00  0.355277D-01  0.240645D-01  0.307348D-01
     15  0.000000D+00  0.000000D+00 -0.105774D-02 -0.261064D-01 -0.306368D-01
     16  0.000000D+00  0.000000D+00  0.000000D+00  0.000000D+00  0.000000D+00
     17  0.000000D+00  0.000000D+00  0.000000D+00  0.000000D+00  0.000000D+00
     18  0.000000D+00  0.000000D+00  0.000000D+00  0.000000D+00  0.000000D+00
               11            12            13            14            15 
     11  0.358919D+00
     12  0.389570D-01  0.358918D+00
     13  0.815043D-01  0.815036D-01  0.308797D+00
     14  0.000000D+00  0.000000D+00  0.000000D+00  0.184182D+00
     15  0.000000D+00  0.000000D+00  0.000000D+00 -0.137507D+00  0.184608D+00
     16  0.338783D-03 -0.336919D-03 -0.210427D-05  0.690000D-02  0.690000D-02
     17 -0.647961D-01 -0.627142D-01 -0.361225D-01  0.230000D-02  0.230000D-02
     18  0.242117D-02 -0.242112D-02  0.000000D+00  0.230000D-02  0.230000D-02
               16            17            18 
     16  0.995700D-01
     17  0.467139D-01  0.157278D+00
     18  0.614340D-02 -0.418693D-03  0.698075D-02
 Leave Link  716 at Wed May 26 19:08:01 2021, MaxMem=   13107200 cpu:       0.0
 (Enter /programs/64bit/g09/g09-gfortran/bin/l103.exe)

 GradGradGradGradGradGradGradGradGradGradGradGradGradGradGradGradGradGrad
 Berny optimization.
 Search for a local minimum.
 Step number   1 out of a maximum of    2
 All quantities printed in internal units (Hartrees-Bohrs-Radians)
 Second derivative matrix not updated -- first step.
 The second derivative matrix:
                          d1        a1        t1        d2        a2
           d1           0.01033
           a1           0.00000   0.39477
           t1           0.00000   0.03553   0.18418
           d2           0.00000   0.00000   0.00000   0.30300
           a2           0.00000   0.08184   0.02406   0.00000   0.32634
           t2           0.00000  -0.00106  -0.13751  -0.00000  -0.02611
           d3          -0.00000  -0.00000   0.00000   0.00000  -0.00000
           d4          -0.00000   0.00000   0.00000   0.00000   0.00000
           a3           0.00000   0.16081   0.03073   0.00000   0.00729
           d5          -0.00000   0.00000   0.00000   0.00000  -0.00000
           a4          -0.00000   0.00000  -0.00000   0.00000   0.00000
           t3          -0.00000   0.00000   0.00690   0.00000   0.00000
           d6          -0.00000   0.00000   0.00000   0.00000   0.00000
           a5          -0.00000   0.00000  -0.00000   0.00000   0.00000
           t4          -0.00000   0.00000   0.00230   0.00000   0.00000
           d7           0.00000   0.00000  -0.00000   0.00000   0.00000
           a6           0.00000   0.00000   0.00000   0.00000  -0.00000
           t5          -0.00000   0.00000   0.00230   0.00000  -0.00000
                          t2        d3        d4        a3        d5
           t2           0.18461
           d3          -0.00000   0.24065
           d4          -0.00000   0.00000   0.26797
           a3          -0.03064  -0.00000  -0.00000   0.32836
           d5           0.00000   0.00000   0.00000  -0.00000   0.32408
           a4          -0.00000  -0.00000  -0.00000   0.00000  -0.00000
           t3           0.00690  -0.00000   0.00000  -0.00000   0.00000
           d6          -0.00000  -0.00000   0.00000  -0.00000  -0.00000
           a5           0.00000  -0.00000  -0.00000   0.00000   0.00000
           t4           0.00230  -0.00000   0.00000  -0.00000  -0.00000
           d7          -0.00000  -0.00000   0.00000  -0.00000   0.00000
           a6           0.00000   0.00000  -0.00000   0.00000  -0.00000
           t5           0.00230   0.00000  -0.00000   0.00000  -0.00000
                          a4        t3        d6        a5        t4
           a4           0.35892
           t3           0.00034   0.09957
           d6           0.00000   0.00000   0.31476
           a5           0.03896  -0.00034  -0.00000   0.35892
           t4          -0.06480   0.04671   0.00000  -0.06271   0.15728
           d7           0.00000   0.00000   0.00000   0.00000  -0.00000
           a6           0.08150  -0.00000   0.00000   0.08150  -0.03612
           t5           0.00242   0.00614   0.00000  -0.00242  -0.00042
                          d7        a6        t5
           d7           0.27872
           a6           0.00000   0.30880
           t5           0.00000   0.00000   0.00698
     Eigenvalues --- 1000.000001000.000001000.000001000.000001000.00000
     Eigenvalues --- 1000.000001000.000001000.000001000.000001000.00000
     Eigenvalues --- 1000.000001000.000001000.000001000.000001000.00000
     Eigenvalues --- 1000.000001000.000001000.00000
 Angle between quadratic step and forces=  90.00 degrees.
 Linear search not attempted -- first point.
 Variable       Old X    -DE/DX   Delta X   Delta X   Delta X     New X
                                 (Linear)    (Quad)   (Total)
    d1        6.60067  -0.01313   0.00000   0.00000   0.00000   6.60067
    a1        3.12403  -0.16887   0.00000   0.00000   0.00000   3.12403
    t1        2.09433  -0.12103   0.00000   0.00000   0.00000   2.09433
    d2        2.14068  -0.00031   0.00000   0.00000   0.00000   2.14068
    a2        1.91982  -0.12008   0.00000   0.00000   0.00000   1.91982
    t2       -3.12407   0.12140   0.00000   0.00000   0.00000  -3.12407
    d3        2.28347  -0.01173   0.00000   0.00000   0.00000   2.28347
    d4        2.21547  -0.00519   0.00000   0.00000   0.00000   2.21547
    a3        1.90236  -0.14432   0.00000   0.00000   0.00000   1.90236
    d5        2.10104  -0.00241   0.00000   0.00000   0.00000   2.10104
    a4        1.90238  -0.11421   0.00000   0.00000   0.00000   1.90238
    t3        3.14159  -0.00104   0.00000   0.00000   0.00000   3.14159
    d6        2.11813  -0.00765   0.00000   0.00000   0.00000   2.11813
    a5        1.90238  -0.11310   0.00000   0.00000   0.00000   1.90238
    t4        2.09439   0.02314   0.00000   0.00000   0.00000   2.09439
    d7        2.19119   0.00443   0.00000   0.00000   0.00000   2.19119
    a6        3.12404  -0.12212   0.00000   0.00000   0.00000   3.12404
    t5       -2.09440  -0.00001   0.00000   0.00000   0.00000  -2.09440
         Item               Value     Threshold  Converged?
 Maximum Force            0.000000     0.000450     YES
 RMS     Force            0.000000     0.000300     YES
 Maximum Displacement     0.000000     0.001800     YES
 RMS     Displacement     0.000000     0.001200     YES
 Predicted change in Energy=-0.000000D+00
 Optimization completed.
    -- Stationary point found.
                       ----------------------------
                       !   Optimized Parameters   !
                       ! (Angstroms and Degrees)  !
 ----------------------                            ----------------------
 !      Name          Value   Derivative information (Atomic Units)     !
 ------------------------------------------------------------------------
 !       d1          3.4929   -DE/DX =   -0.0131                        !
 !       a1        178.9936   -DE/DX =   -0.1689                        !
 !       t1        119.9964   -DE/DX =   -0.121                         !
 !       d2          1.1328   -DE/DX =   -0.0003                        !
 !       a2        109.9977   -DE/DX =   -0.1201                        !
 !       t2       -178.9962   -DE/DX =    0.1214                        !
 !       d3          1.2084   -DE/DX =   -0.0117                        !
 !       d4          1.1724   -DE/DX =   -0.0052                        !
 !       a3        108.9971   -DE/DX =   -0.1443                        !
 !       d5          1.1118   -DE/DX =   -0.0024                        !
 !       a4        108.9984   -DE/DX =   -0.1142                        !
 !       t3        180.0      -DE/DX =   -0.001                         !
 !       d6          1.1209   -DE/DX =   -0.0076                        !
 !       a5        108.9983   -DE/DX =   -0.1131                        !
 !       t4        119.9998   -DE/DX =    0.0231                        !
 !       d7          1.1595   -DE/DX =    0.0044                        !
 !       a6        178.9943   -DE/DX =   -0.1221                        !
 !       t5       -120.0      -DE/DX =    0.0                           !
 ------------------------------------------------------------------------
 GradGradGradGradGradGradGradGradGradGradGradGradGradGradGradGradGradGrad

 Leave Link  103 at Wed May 26 19:08:01 2021, MaxMem=   13107200 cpu:       0.0
 (Enter /programs/64bit/g09/g09-gfortran/bin/l9999.exe)
 1\1\GINC-MOLMOD\Force\RB3LYP\6-31+G(d,p)\C2H6\OSPITE\26-May-2021\1\\#p
  b3lyp/6-31+g(d,p) force nosym\\c2h6 molecule\\0,1\C\C,1,d1\H,1,d2,2,a
 1\H,1,d3,2,a2,3,t1,0\H,1,d4,2,a3,3,t2,0\H,2,d5,1,a4,3,t3,0\H,2,d6,1,a5
 ,6,t4,0\H,2,d7,1,a6,6,t5,0\\d1=3.49292406\a1=178.99361559\t1=119.99641
 335\d2=1.13280099\a2=109.99766475\t2=-178.9961882\d3=1.20835888\d4=1.1
 7237643\a3=108.99705912\d5=1.11182505\a4=108.99838383\t3=179.99997557\
 d6=1.12086465\a5=108.99826689\t4=119.99978707\d7=1.15952631\a6=178.994
 3399\t5=-119.99999825\\Version=EM64L-G09RevA.02\HF=-79.3477794\RMSD=5.
 795e-09\RMSF=5.364e-02\Dipole=-0.4331627,-0.4096692,1.0975936\Quadrupo
 le=-4.1960398,-5.5033306,9.6993704,0.2438133,-0.353651,-1.5839821\PG=C
 01 [X(C2H6)]\\@


 WE TEND TO MEET ANY NEW SITUATION BY REORGANIZING. IT CAN BE A
 WONDERFUL METHOD FOR CREATING THE ILLUSION OF PROGRESS WHILE PRODUCING
 CONFUSION, INEFFICIENCY, AND DEMORALIZATION.
     -- PETRONIUS ARBITER, 210 B.C.
 Job cpu time:  0 days  0 hours  0 minutes 13.7 seconds.
 File lengths (MBytes):  RWF=      5 Int=      0 D2E=      0 Chk=      1 Scr=      1
 Normal termination of Gaussian 09 at Wed May 26 19:08:01 2021.
