 Entering Gaussian System, Link 0=g09
 Input=c2h6_034.com
 Output=c2h6_034.log
 Initial command:
 /programs/64bit/g09/g09-gfortran/bin/l1.exe /data/scratch/Gau-6708.inp -scrdir=/data/scratch/
 Entering Link 1 = /programs/64bit/g09/g09-gfortran/bin/l1.exe PID=      6709.
  
 Copyright (c) 1988,1990,1992,1993,1995,1998,2003,2009, Gaussian, Inc.
                  All Rights Reserved.
  
 This is part of the Gaussian(R) 09 program.  It is based on
 the Gaussian(R) 03 system (copyright 2003, Gaussian, Inc.),
 the Gaussian(R) 98 system (copyright 1998, Gaussian, Inc.),
 the Gaussian(R) 94 system (copyright 1995, Gaussian, Inc.),
 the Gaussian 92(TM) system (copyright 1992, Gaussian, Inc.),
 the Gaussian 90(TM) system (copyright 1990, Gaussian, Inc.),
 the Gaussian 88(TM) system (copyright 1988, Gaussian, Inc.),
 the Gaussian 86(TM) system (copyright 1986, Carnegie Mellon
 University), and the Gaussian 82(TM) system (copyright 1983,
 Carnegie Mellon University). Gaussian is a federally registered
 trademark of Gaussian, Inc.
  
 This software contains proprietary and confidential information,
 including trade secrets, belonging to Gaussian, Inc.
  
 This software is provided under written license and may be
 used, copied, transmitted, or stored only in accord with that
 written license.
  
 The following legend is applicable only to US Government
 contracts under FAR:
  
                    RESTRICTED RIGHTS LEGEND
  
 Use, reproduction and disclosure by the US Government is
 subject to restrictions as set forth in subparagraphs (a)
 and (c) of the Commercial Computer Software - Restricted
 Rights clause in FAR 52.227-19.
  
 Gaussian, Inc.
 340 Quinnipiac St., Bldg. 40, Wallingford CT 06492
  
  
 ---------------------------------------------------------------
 Warning -- This program may not be used in any manner that
 competes with the business of Gaussian, Inc. or will provide
 assistance to any competitor of Gaussian, Inc.  The licensee
 of this program is prohibited from giving any competitor of
 Gaussian, Inc. access to this program.  By using this program,
 the user acknowledges that Gaussian, Inc. is engaged in the
 business of creating and licensing software in the field of
 computational chemistry and represents and warrants to the
 licensee that it is not a competitor of Gaussian, Inc. and that
 it will not use this program in any manner prohibited above.
 ---------------------------------------------------------------
  

 Cite this work as:
 Gaussian 09, Revision A.02,
 M. J. Frisch, G. W. Trucks, H. B. Schlegel, G. E. Scuseria, 
 M. A. Robb, J. R. Cheeseman, G. Scalmani, V. Barone, B. Mennucci, 
 G. A. Petersson, H. Nakatsuji, M. Caricato, X. Li, H. P. Hratchian, 
 A. F. Izmaylov, J. Bloino, G. Zheng, J. L. Sonnenberg, M. Hada, 
 M. Ehara, K. Toyota, R. Fukuda, J. Hasegawa, M. Ishida, T. Nakajima, 
 Y. Honda, O. Kitao, H. Nakai, T. Vreven, J. A. Montgomery, Jr., 
 J. E. Peralta, F. Ogliaro, M. Bearpark, J. J. Heyd, E. Brothers, 
 K. N. Kudin, V. N. Staroverov, R. Kobayashi, J. Normand, 
 K. Raghavachari, A. Rendell, J. C. Burant, S. S. Iyengar, J. Tomasi, 
 M. Cossi, N. Rega, J. M. Millam, M. Klene, J. E. Knox, J. B. Cross, 
 V. Bakken, C. Adamo, J. Jaramillo, R. Gomperts, R. E. Stratmann, 
 O. Yazyev, A. J. Austin, R. Cammi, C. Pomelli, J. W. Ochterski, 
 R. L. Martin, K. Morokuma, V. G. Zakrzewski, G. A. Voth, 
 P. Salvador, J. J. Dannenberg, S. Dapprich, A. D. Daniels, 
 O. Farkas, J. B. Foresman, J. V. Ortiz, J. Cioslowski, 
 and D. J. Fox, Gaussian, Inc., Wallingford CT, 2009.
 
 ******************************************
 Gaussian 09:  EM64L-G09RevA.02 11-Jun-2009
                26-May-2021 
 ******************************************
 %chk=c2h6_034.chk
 %mem=100MB
 --------------------------------
 #p b3lyp/6-31+g(d,p) force nosym
 --------------------------------
 1/10=7,30=1,38=1/1,3;
 2/12=2,15=1,17=6,18=5,40=1/2;
 3/5=1,6=6,7=111,11=2,16=1,25=1,30=1,71=1,74=-5/1,2,3;
 4//1;
 5/5=2,38=5/2;
 6/7=2,8=2,9=2,10=2,28=1/1;
 7/29=1,30=1/1,2,3,16;
 1/10=7,30=1/3;
 99//99;
 Leave Link    1 at Wed May 26 19:13:24 2021, MaxMem=   13107200 cpu:       0.0
 (Enter /programs/64bit/g09/g09-gfortran/bin/l101.exe)
 -------------
 c2h6 molecule
 -------------
 Symbolic Z-matrix:
 Charge =  0 Multiplicity = 1
 C1
 C2                   1    d1
 H3                   1    d2       2    a1
 H4                   1    d3       2    a2       3    t1       0
 H5                   1    d4       2    a3       3    t2       0
 H6                   2    d5       1    a4       3    t3       0
 H7                   2    d6       1    a5       6    t4       0
 H8                   2    d7       1    a6       6    t5       0
       Variables:
       Constants:
  d1                    1.66967                  
  a1                  150.51925                  
  t1                   99.32192                  
  d2                    1.08888                  
  a2                   88.85859                  
  t2                 -158.02476                  
  d3                    1.08082                  
  d4                    1.08575                  
  a3                   87.0652                   
  d5                    1.08756                  
  a4                   90.97648                  
  t3                  179.82656                  
  d6                    1.09507                  
  a5                   91.24418                  
  t4                  122.07108                  
  d7                    1.10322                  
  a6                  156.10888                  
  t5                 -119.99995                  
 
 NAtoms=      8 NQM=      8 NQMF=      0 NMic=      0 NMicF=      0 NTot=      8.
                    Isotopes and Nuclear Properties:
 (Nuclear quadrupole moments (NQMom) in fm**2, nuclear magnetic moments (NMagM)
  in nuclear magnetons)

  Atom         1           2           3           4           5           6           7           8
 IAtWgt=          12          12           1           1           1           1           1           1
 AtmWgt=  12.0000000  12.0000000   1.0078250   1.0078250   1.0078250   1.0078250   1.0078250   1.0078250
 NucSpn=           0           0           1           1           1           1           1           1
 AtZEff=   0.0000000   0.0000000   0.0000000   0.0000000   0.0000000   0.0000000   0.0000000   0.0000000
 NQMom=    0.0000000   0.0000000   0.0000000   0.0000000   0.0000000   0.0000000   0.0000000   0.0000000
 NMagM=    0.0000000   0.0000000   2.7928460   2.7928460   2.7928460   2.7928460   2.7928460   2.7928460
 Leave Link  101 at Wed May 26 19:13:24 2021, MaxMem=   13107200 cpu:       0.0
 (Enter /programs/64bit/g09/g09-gfortran/bin/l103.exe)

 GradGradGradGradGradGradGradGradGradGradGradGradGradGradGradGradGradGrad
 Berny optimization.
 Initialization pass.
                       ----------------------------
                       !    Initial Parameters    !
                       ! (Angstroms and Degrees)  !
 ----------------------                            ----------------------
 !      Name          Value   Derivative information (Atomic Units)     !
 ------------------------------------------------------------------------
 !       d1          1.6697   Frozen                                    !
 !       a1        150.5193   Frozen                                    !
 !       t1         99.3219   Frozen                                    !
 !       d2          1.0889   Frozen                                    !
 !       a2         88.8586   Frozen                                    !
 !       t2       -158.0248   Frozen                                    !
 !       d3          1.0808   Frozen                                    !
 !       d4          1.0858   Frozen                                    !
 !       a3         87.0652   Frozen                                    !
 !       d5          1.0876   Frozen                                    !
 !       a4         90.9765   Frozen                                    !
 !       t3        179.8266   Frozen                                    !
 !       d6          1.0951   Frozen                                    !
 !       a5         91.2442   Frozen                                    !
 !       t4        122.0711   Frozen                                    !
 !       d7          1.1032   Frozen                                    !
 !       a6        156.1089   Frozen                                    !
 !       t5       -119.9999   Frozen                                    !
 ------------------------------------------------------------------------
 Trust Radius=3.00D-01 FncErr=1.00D-07 GrdErr=1.00D-07
 Number of steps in this run=   2 maximum allowed number of steps=   2.
 GradGradGradGradGradGradGradGradGradGradGradGradGradGradGradGradGradGrad

 Leave Link  103 at Wed May 26 19:13:24 2021, MaxMem=   13107200 cpu:       0.0
 (Enter /programs/64bit/g09/g09-gfortran/bin/l202.exe)
                          Input orientation:                          
 ---------------------------------------------------------------------
 Center     Atomic      Atomic             Coordinates (Angstroms)
 Number     Number       Type             X           Y           Z
 ---------------------------------------------------------------------
      1          6           0        0.000000    0.000000    0.000000
      2          6           0        0.000000    0.000000    1.669667
      3          1           0        0.535873    0.000000   -0.947894
      4          1           0       -0.175038   -1.066333    0.021530
      5          1           0       -1.005545    0.405761    0.055590
      6          1           0       -1.087397    0.003292    1.688201
      7          1           0        0.578505   -0.929492    1.693445
      8          1           0        0.224571    0.386264    2.678356
 ---------------------------------------------------------------------
                    Distance matrix (angstroms):
                    1          2          3          4          5
     1  C    0.000000
     2  C    1.669667   0.000000
     3  H    1.088882   2.671851   0.000000
     4  H    1.080818   1.970802   1.606936   0.000000
     5  H    1.085750   1.944481   1.883505   1.690551   0.000000
     6  H    2.008100   1.087560   3.095806   2.180434   1.683479
     7  H    2.016526   1.095074   2.800437   1.838981   2.640962
     8  H    2.715368   1.103216   3.660028   3.054251   2.896976
                    6          7          8
     6  H    0.000000
     7  H    1.909278   0.000000
     8  H    1.687701   1.681230   0.000000
 Symmetry turned off by external request.
 Stoichiometry    C2H6
 Framework group  C1[X(C2H6)]
 Deg. of freedom    18
 Full point group                 C1      NOp   1
 Rotational constants (GHZ):     97.8572030     18.1008002     17.1417541
 Leave Link  202 at Wed May 26 19:13:24 2021, MaxMem=   13107200 cpu:       0.0
 (Enter /programs/64bit/g09/g09-gfortran/bin/l301.exe)
 Standard basis: 6-31+G(d,p) (6D, 7F)
 Ernie: Thresh=  0.10000D-02 Tol=  0.10000D-05 Strict=F.
 Integral buffers will be    131072 words long.
 Raffenetti 2 integral format.
 Two-electron integral symmetry is turned off.
    68 basis functions,   106 primitive gaussians,    68 cartesian basis functions
     9 alpha electrons        9 beta electrons
       nuclear repulsion energy        41.3758809208 Hartrees.
 IExCor=  402 DFT=T Ex+Corr=B3LYP ExCW=0 ScaHFX=  0.200000
 ScaDFX=  0.800000  0.720000  1.000000  0.810000 ScalE2=  1.000000  1.000000
 IRadAn=      0 IRanWt=     -1 IRanGd=            0 ICorTp=0
 NAtoms=    8 NActive=    8 NUniq=    8 SFac= 7.50D-01 NAtFMM=   80 NAOKFM=F Big=F
 Leave Link  301 at Wed May 26 19:13:24 2021, MaxMem=   13107200 cpu:       0.0
 (Enter /programs/64bit/g09/g09-gfortran/bin/l302.exe)
 NPDir=0 NMtPBC=     1 NCelOv=     1 NCel=       1 NClECP=     1 NCelD=      1
         NCelK=      1 NCelE2=     1 NClLst=     1 CellRange=     0.0.
 One-electron integrals computed using PRISM.
 NBasis=    68 RedAO= T  NBF=    68
 NBsUse=    68 1.00D-06 NBFU=    68
 Precomputing XC quadrature grid using
 IXCGrd= 2 IRadAn=           0 IRanWt=          -1 IRanGd=           0 AccXCQ= 1.00D-10.
 NRdTot=     510 NPtTot=       65100 NUsed=       68787 NTot=       68819
 NSgBfM=    68    68    68    68    68 NAtAll=     8     8.
 Leave Link  302 at Wed May 26 19:13:25 2021, MaxMem=   13107200 cpu:       0.1
 (Enter /programs/64bit/g09/g09-gfortran/bin/l303.exe)
 DipDrv:  MaxL=1.
 Leave Link  303 at Wed May 26 19:13:25 2021, MaxMem=   13107200 cpu:       0.0
 (Enter /programs/64bit/g09/g09-gfortran/bin/l401.exe)
 Harris functional with IExCor=  402 diagonalized for initial guess.
 ExpMin= 4.38D-02 ExpMax= 3.05D+03 ExpMxC= 4.57D+02 IAcc=2 IRadAn=         0 AccDes= 0.00D+00
 HarFok:  IExCor=  402 AccDes= 0.00D+00 IRadAn=         0 IDoV= 1
 ScaDFX=  1.000000  1.000000  1.000000  1.000000
 FoFCou: FMM=F IPFlag=           0 FMFlag=      100000 FMFlg1=           0
         NFxFlg=           0 DoJE=T BraDBF=F KetDBF=T FulRan=T
         Omega=  0.000000  0.000000  1.000000  0.000000  0.000000 ICntrl=     500 IOpCl=  0
         NMat0=    1 NMatS0=    1 NMatT0=    0 NMatD0=    1 NMtDS0=    0 NMtDT0=    0
         I1Cent=           4 NGrid=           0.
 Symmetry not used in FoFCou.
 Harris En= -79.7708468187684    
 Leave Link  401 at Wed May 26 19:13:25 2021, MaxMem=   13107200 cpu:       0.8
 (Enter /programs/64bit/g09/g09-gfortran/bin/l502.exe)
 Closed shell SCF:
 Requested convergence on RMS density matrix=1.00D-08 within 128 cycles.
 Requested convergence on MAX density matrix=1.00D-06.
 Requested convergence on             energy=1.00D-06.
 No special actions if energy rises.
 Using DIIS extrapolation, IDIIS=  1040.
 Two-electron integral symmetry not used.
        68702 words used for storage of precomputed grid.
 Keep R1 ints in memory in canonical form, NReq=3743087.
 IEnd=      101552 IEndB=      101552 NGot=    13107200 MDV=    10273922
 LenX=    10273922 LenY=    10268857
 Symmetry not used in FoFDir.
 MinBra= 0 MaxBra= 2 Meth= 1.
 IRaf=       0 NMat=   1 IRICut=       1 DoRegI=T DoRafI=F ISym2E= 0 JSym2E=0.

 Cycle   1  Pass 1  IDiag  1:
 E= -79.6078845136325    
 DIIS: error= 3.63D-02 at cycle   1 NSaved=   1.
 NSaved= 1 IEnMin= 1 EnMin= -79.6078845136325     IErMin= 1 ErrMin= 3.63D-02
 ErrMax= 3.63D-02 EMaxC= 1.00D-01 BMatC= 9.90D-02 BMatP= 9.90D-02
 IDIUse=3 WtCom= 6.37D-01 WtEn= 3.63D-01
 Coeff-Com:  0.100D+01
 Coeff-En:   0.100D+01
 Coeff:      0.100D+01
 Gap=     0.329 Goal=   None    Shift=    0.000
 GapD=    0.329 DampG=1.000 DampE=0.500 DampFc=0.5000 IDamp=-1.
 Damping current iteration by 5.00D-01
 RMSDP=1.20D-02 MaxDP=1.33D-01              OVMax= 2.11D-01

 Cycle   2  Pass 1  IDiag  1:
 E= -79.6548194221183     Delta-E=       -0.046934908486 Rises=F Damp=T
 DIIS: error= 9.58D-03 at cycle   2 NSaved=   2.
 NSaved= 2 IEnMin= 2 EnMin= -79.6548194221183     IErMin= 2 ErrMin= 9.58D-03
 ErrMax= 9.58D-03 EMaxC= 1.00D-01 BMatC= 4.57D-03 BMatP= 9.90D-02
 IDIUse=3 WtCom= 9.04D-01 WtEn= 9.58D-02
 Coeff-Com:  0.108D+00 0.892D+00
 Coeff-En:   0.184D+00 0.816D+00
 Coeff:      0.116D+00 0.884D+00
 Gap=     0.304 Goal=   None    Shift=    0.000
 RMSDP=2.34D-03 MaxDP=3.73D-02 DE=-4.69D-02 OVMax= 1.19D-01

 Cycle   3  Pass 1  IDiag  1:
 E= -79.7210479845354     Delta-E=       -0.066228562417 Rises=F Damp=F
 DIIS: error= 1.98D-03 at cycle   3 NSaved=   3.
 NSaved= 3 IEnMin= 3 EnMin= -79.7210479845354     IErMin= 3 ErrMin= 1.98D-03
 ErrMax= 1.98D-03 EMaxC= 1.00D-01 BMatC= 3.25D-04 BMatP= 4.57D-03
 IDIUse=3 WtCom= 9.80D-01 WtEn= 1.98D-02
 Coeff-Com:  0.758D-02 0.180D+00 0.813D+00
 Coeff-En:   0.000D+00 0.000D+00 0.100D+01
 Coeff:      0.743D-02 0.176D+00 0.816D+00
 Gap=     0.298 Goal=   None    Shift=    0.000
 RMSDP=4.74D-04 MaxDP=4.98D-03 DE=-6.62D-02 OVMax= 6.25D-03

 Cycle   4  Pass 1  IDiag  1:
 E= -79.7213624596886     Delta-E=       -0.000314475153 Rises=F Damp=F
 DIIS: error= 4.35D-04 at cycle   4 NSaved=   4.
 NSaved= 4 IEnMin= 4 EnMin= -79.7213624596886     IErMin= 4 ErrMin= 4.35D-04
 ErrMax= 4.35D-04 EMaxC= 1.00D-01 BMatC= 1.52D-05 BMatP= 3.25D-04
 IDIUse=3 WtCom= 9.96D-01 WtEn= 4.35D-03
 Coeff-Com: -0.623D-03-0.426D-03 0.173D+00 0.828D+00
 Coeff-En:   0.000D+00 0.000D+00 0.000D+00 0.100D+01
 Coeff:     -0.621D-03-0.425D-03 0.172D+00 0.829D+00
 Gap=     0.298 Goal=   None    Shift=    0.000
 RMSDP=1.19D-04 MaxDP=1.48D-03 DE=-3.14D-04 OVMax= 1.60D-03

 Cycle   5  Pass 1  IDiag  1:
 E= -79.7213768163571     Delta-E=       -0.000014356668 Rises=F Damp=F
 DIIS: error= 1.27D-04 at cycle   5 NSaved=   5.
 NSaved= 5 IEnMin= 5 EnMin= -79.7213768163571     IErMin= 5 ErrMin= 1.27D-04
 ErrMax= 1.27D-04 EMaxC= 1.00D-01 BMatC= 1.53D-06 BMatP= 1.52D-05
 IDIUse=3 WtCom= 9.99D-01 WtEn= 1.27D-03
 Coeff-Com: -0.203D-03-0.175D-02 0.837D-01 0.437D+00 0.482D+00
 Coeff-En:   0.000D+00 0.000D+00 0.000D+00 0.000D+00 0.100D+01
 Coeff:     -0.203D-03-0.175D-02 0.836D-01 0.436D+00 0.482D+00
 Gap=     0.298 Goal=   None    Shift=    0.000
 RMSDP=2.00D-05 MaxDP=2.78D-04 DE=-1.44D-05 OVMax= 5.06D-04

 Cycle   6  Pass 1  IDiag  1:
 E= -79.7213783792565     Delta-E=       -0.000001562899 Rises=F Damp=F
 DIIS: error= 2.80D-05 at cycle   6 NSaved=   6.
 NSaved= 6 IEnMin= 6 EnMin= -79.7213783792565     IErMin= 6 ErrMin= 2.80D-05
 ErrMax= 2.80D-05 EMaxC= 1.00D-01 BMatC= 7.08D-08 BMatP= 1.53D-06
 IDIUse=1 WtCom= 1.00D+00 WtEn= 0.00D+00
 Coeff-Com:  0.143D-03-0.746D-03 0.101D-01 0.633D-01 0.195D+00 0.732D+00
 Coeff:      0.143D-03-0.746D-03 0.101D-01 0.633D-01 0.195D+00 0.732D+00
 Gap=     0.298 Goal=   None    Shift=    0.000
 RMSDP=4.03D-06 MaxDP=5.84D-05 DE=-1.56D-06 OVMax= 8.57D-05

 Cycle   7  Pass 1  IDiag  1:
 E= -79.7213784517290     Delta-E=       -0.000000072473 Rises=F Damp=F
 DIIS: error= 3.38D-06 at cycle   7 NSaved=   7.
 NSaved= 7 IEnMin= 7 EnMin= -79.7213784517290     IErMin= 7 ErrMin= 3.38D-06
 ErrMax= 3.38D-06 EMaxC= 1.00D-01 BMatC= 1.31D-09 BMatP= 7.08D-08
 IDIUse=1 WtCom= 1.00D+00 WtEn= 0.00D+00
 Coeff-Com:  0.728D-04-0.163D-03-0.116D-02-0.274D-02 0.336D-01 0.193D+00
 Coeff-Com:  0.778D+00
 Coeff:      0.728D-04-0.163D-03-0.116D-02-0.274D-02 0.336D-01 0.193D+00
 Coeff:      0.778D+00
 Gap=     0.298 Goal=   None    Shift=    0.000
 RMSDP=1.06D-06 MaxDP=1.12D-05 DE=-7.25D-08 OVMax= 1.38D-05

 Cycle   8  Pass 1  IDiag  1:
 E= -79.7213784532525     Delta-E=       -0.000000001523 Rises=F Damp=F
 DIIS: error= 5.87D-07 at cycle   8 NSaved=   8.
 NSaved= 8 IEnMin= 8 EnMin= -79.7213784532525     IErMin= 8 ErrMin= 5.87D-07
 ErrMax= 5.87D-07 EMaxC= 1.00D-01 BMatC= 2.48D-11 BMatP= 1.31D-09
 IDIUse=1 WtCom= 1.00D+00 WtEn= 0.00D+00
 Coeff-Com:  0.114D-04-0.145D-04-0.480D-03-0.202D-02 0.202D-02 0.186D-01
 Coeff-Com:  0.164D+00 0.818D+00
 Coeff:      0.114D-04-0.145D-04-0.480D-03-0.202D-02 0.202D-02 0.186D-01
 Coeff:      0.164D+00 0.818D+00
 Gap=     0.298 Goal=   None    Shift=    0.000
 RMSDP=1.55D-07 MaxDP=1.88D-06 DE=-1.52D-09 OVMax= 2.44D-06

 Cycle   9  Pass 1  IDiag  1:
 E= -79.7213784532836     Delta-E=       -0.000000000031 Rises=F Damp=F
 DIIS: error= 9.42D-08 at cycle   9 NSaved=   9.
 NSaved= 9 IEnMin= 9 EnMin= -79.7213784532836     IErMin= 9 ErrMin= 9.42D-08
 ErrMax= 9.42D-08 EMaxC= 1.00D-01 BMatC= 7.51D-13 BMatP= 2.48D-11
 IDIUse=1 WtCom= 1.00D+00 WtEn= 0.00D+00
 Coeff-Com: -0.640D-06 0.202D-05-0.444D-04-0.205D-03-0.533D-03-0.245D-02
 Coeff-Com:  0.735D-02 0.159D+00 0.837D+00
 Coeff:     -0.640D-06 0.202D-05-0.444D-04-0.205D-03-0.533D-03-0.245D-02
 Coeff:      0.735D-02 0.159D+00 0.837D+00
 Gap=     0.298 Goal=   None    Shift=    0.000
 RMSDP=2.45D-08 MaxDP=2.83D-07 DE=-3.12D-11 OVMax= 4.51D-07

 Cycle  10  Pass 1  IDiag  1:
 E= -79.7213784532846     Delta-E=       -0.000000000001 Rises=F Damp=F
 DIIS: error= 1.62D-08 at cycle  10 NSaved=  10.
 NSaved=10 IEnMin=10 EnMin= -79.7213784532846     IErMin=10 ErrMin= 1.62D-08
 ErrMax= 1.62D-08 EMaxC= 1.00D-01 BMatC= 2.03D-14 BMatP= 7.51D-13
 IDIUse=1 WtCom= 1.00D+00 WtEn= 0.00D+00
 Coeff-Com: -0.499D-06 0.725D-06-0.203D-05-0.100D-04-0.197D-03-0.108D-02
 Coeff-Com: -0.223D-02 0.159D-01 0.182D+00 0.805D+00
 Coeff:     -0.499D-06 0.725D-06-0.203D-05-0.100D-04-0.197D-03-0.108D-02
 Coeff:     -0.223D-02 0.159D-01 0.182D+00 0.805D+00
 Gap=     0.298 Goal=   None    Shift=    0.000
 RMSDP=3.99D-09 MaxDP=3.53D-08 DE=-9.95D-13 OVMax= 5.48D-08

 SCF Done:  E(RB3LYP) =  -79.7213784533     A.U. after   10 cycles
             Convg  =    0.3989D-08             -V/T =  2.0098
 KE= 7.895145647303D+01 PE=-2.661999323201D+02 EE= 6.615121647300D+01
 Leave Link  502 at Wed May 26 19:13:33 2021, MaxMem=   13107200 cpu:       7.4
 (Enter /programs/64bit/g09/g09-gfortran/bin/l601.exe)
 Copying SCF densities to generalized density rwf, IOpCl= 0 IROHF=0.

 **********************************************************************

            Population analysis using the SCF density.

 **********************************************************************

 Alpha  occ. eigenvalues --  -10.19650 -10.19369  -0.76211  -0.62867  -0.47531
 Alpha  occ. eigenvalues --   -0.43572  -0.36671  -0.32830  -0.29005
 Alpha virt. eigenvalues --    0.00769   0.01007   0.04941   0.05745   0.06696
 Alpha virt. eigenvalues --    0.07782   0.08738   0.10663   0.14724   0.15751
 Alpha virt. eigenvalues --    0.19811   0.21576   0.25743   0.30032   0.33687
 Alpha virt. eigenvalues --    0.64449   0.64843   0.65865   0.69254   0.73415
 Alpha virt. eigenvalues --    0.75721   0.88229   0.89032   0.94830   0.97644
 Alpha virt. eigenvalues --    1.03533   1.05078   1.06700   1.21671   1.29568
 Alpha virt. eigenvalues --    1.44239   1.53791   1.71210   1.81232   1.93995
 Alpha virt. eigenvalues --    1.98003   2.04515   2.11902   2.15316   2.18803
 Alpha virt. eigenvalues --    2.23775   2.26336   2.36111   2.40930   2.58967
 Alpha virt. eigenvalues --    2.66607   2.67187   2.72872   2.74633   2.88492
 Alpha virt. eigenvalues --    2.92891   3.22500   3.28081   3.36722   3.42267
 Alpha virt. eigenvalues --    3.52083   3.68618   4.27223   4.73024
          Condensed to atoms (all electrons):
              1          2          3          4          5          6
     1  C    5.259087   0.121444   0.353766   0.446153   0.434502  -0.097948
     2  C    0.121444   5.236997   0.018704  -0.097520  -0.087331   0.450081
     3  H    0.353766   0.018704   0.536770  -0.051082  -0.017458   0.004226
     4  H    0.446153  -0.097520  -0.051082   0.623981  -0.039034  -0.006888
     5  H    0.434502  -0.087331  -0.017458  -0.039034   0.570916  -0.019171
     6  H   -0.097948   0.450081   0.004226  -0.006888  -0.019171   0.598744
     7  H   -0.103849   0.448403   0.002521  -0.028486   0.006885  -0.015122
     8  H    0.040572   0.335216  -0.000948   0.004595   0.000614  -0.046476
              7          8
     1  C   -0.103849   0.040572
     2  C    0.448403   0.335216
     3  H    0.002521  -0.000948
     4  H   -0.028486   0.004595
     5  H    0.006885   0.000614
     6  H   -0.015122  -0.046476
     7  H    0.589693  -0.041926
     8  H   -0.041926   0.554926
 Mulliken atomic charges:
              1
     1  C   -0.453727
     2  C   -0.425994
     3  H    0.153502
     4  H    0.148282
     5  H    0.150075
     6  H    0.132554
     7  H    0.141881
     8  H    0.153427
 Sum of Mulliken atomic charges =   0.00000
 Mulliken charges with hydrogens summed into heavy atoms:
              1
     1  C   -0.001868
     2  C    0.001868
 Sum of Mulliken charges with hydrogens summed into heavy atoms =   0.00000
 Electronic spatial extent (au):  <R**2>=            162.2040
 Charge=              0.0000 electrons
 Dipole moment (field-independent basis, Debye):
    X=             -0.2578    Y=             -0.5332    Z=             -0.0229  Tot=              0.5927
 Quadrupole moment (field-independent basis, Debye-Ang):
   XX=            -15.4189   YY=            -16.3327   ZZ=            -14.7927
   XY=             -1.0037   XZ=             -0.7098   YZ=              0.2171
 Traceless Quadrupole moment (field-independent basis, Debye-Ang):
   XX=              0.0959   YY=             -0.8179   ZZ=              0.7220
   XY=             -1.0037   XZ=             -0.7098   YZ=              0.2171
 Octapole moment (field-independent basis, Debye-Ang**2):
  XXX=              1.1127  YYY=              1.7915  ZZZ=            -37.3793  XYY=              0.9079
  XXY=              0.9560  XXZ=            -12.8294  XZZ=              1.1634  YZZ=              1.3813
  YYZ=            -14.3500  XYZ=             -1.0824
 Hexadecapole moment (field-independent basis, Debye-Ang**3):
 XXXX=            -30.8706 YYYY=            -30.4276 ZZZZ=           -162.8085 XXXY=             -0.0950
 XXXZ=              0.2955 YYYX=              0.2486 YYYZ=              1.1300 ZZZX=              1.7669
 ZZZY=              4.4829 XXYY=            -10.4484 XXZZ=            -34.7706 YYZZ=            -37.5915
 XXYZ=              0.5416 YYXZ=              0.8306 ZZXY=             -1.3748
 N-N= 4.137588092082D+01 E-N=-2.661999319683D+02  KE= 7.895145647303D+01
 No NMR shielding tensors so no spin-rotation constants.
 Leave Link  601 at Wed May 26 19:13:33 2021, MaxMem=   13107200 cpu:       0.1
 (Enter /programs/64bit/g09/g09-gfortran/bin/l701.exe)
 Compute integral first derivatives.
 ... and contract with generalized density number  0.
 Leave Link  701 at Wed May 26 19:13:33 2021, MaxMem=   13107200 cpu:       0.1
 (Enter /programs/64bit/g09/g09-gfortran/bin/l702.exe)
 L702 exits ... SP integral derivatives will be done elsewhere.
 Leave Link  702 at Wed May 26 19:13:33 2021, MaxMem=   13107200 cpu:       0.0
 (Enter /programs/64bit/g09/g09-gfortran/bin/l703.exe)
 Compute integral first derivatives, UseDBF=F ICtDFT=           0.
 Integral derivatives from FoFDir, PRISM(SPDF).
 Calling FoFJK, ICntrl=      2127 FMM=F ISym2X=0 I1Cent= 0 IOpClX= 0 NMat=1 NMatS=1 NMatT=0.
 FoFCou: FMM=F IPFlag=           0 FMFlag=      100000 FMFlg1=         800
         NFxFlg=           0 DoJE=F BraDBF=F KetDBF=F FulRan=T
         Omega=  0.000000  0.000000  1.000000  0.000000  0.000000 ICntrl=    2127 IOpCl=  0
         NMat0=    1 NMatS0=    1 NMatT0=    0 NMatD0=    1 NMtDS0=    0 NMtDT0=    0
         I1Cent=           0 NGrid=           0.
 Symmetry not used in FoFCou.
 Leave Link  703 at Wed May 26 19:13:35 2021, MaxMem=   13107200 cpu:       1.5
 (Enter /programs/64bit/g09/g09-gfortran/bin/l716.exe)
 Dipole        =-1.01440947D-01-2.09791916D-01-8.99647978D-03
 -------------------------------------------------------------------
 Center     Atomic                   Forces (Hartrees/Bohr)
 Number     Number              X              Y              Z
 -------------------------------------------------------------------
      1        6          -0.038149205   -0.008477070    0.027199767
      2        6           0.023895139   -0.028387672   -0.003255492
      3        1           0.022203047    0.034588991    0.008902429
      4        1          -0.009956798   -0.009554598   -0.008057270
      5        1           0.000617883    0.009898709   -0.044692553
      6        1          -0.000194859   -0.024324685    0.016144575
      7        1          -0.020475107   -0.011788435    0.023459009
      8        1           0.022059899    0.038044760   -0.019700465
 -------------------------------------------------------------------
 Cartesian Forces:  Max     0.044692553 RMS     0.022414002
 -----------------------------------------------------------------------------------------------
                       Internal Coordinate Forces (Hartree/Bohr or radian)
  Cent   Atom   N1       Length/X         N2         Alpha/Y        N3         Beta/Z          J
 -----------------------------------------------------------------------------------------------
      1  C 
      2  C        1   0.016648(     1)
      3  H        1   0.003177(     2)      2  -0.048787(     8)
      4  H        1   0.010879(     3)      2   0.016903(     9)      3   0.016903(    14)     0
      5  H        1   0.000839(     4)      2   0.091908(    10)      3   0.019283(    15)     0
      6  H        2   0.000396(     5)      1   0.033171(    11)      3   0.001177(    16)     0
      7  H        2  -0.000301(     6)      1   0.048571(    12)      6  -0.048852(    17)     0
      8  H        2  -0.000201(     7)      1  -0.100462(    13)      6   0.000043(    18)     0
 -----------------------------------------------------------------------------------------------
 Internal  Forces:  Max     0.100461726 RMS     0.039522721
 Force constants in Cartesian coordinates: 
                1             2             3             4             5 
      1  0.650609D+00
      2 -0.519911D-01  0.606406D+00
      3 -0.134343D+00 -0.114267D-01  0.659488D+00
      4 -0.103162D+00 -0.392425D-02  0.131076D-01  0.680638D+00
      5 -0.629542D-02 -0.955345D-01  0.147764D-01 -0.888695D-01  0.558160D+00
      6 -0.547137D-02 -0.989518D-02 -0.195436D+00  0.476566D-01  0.810163D-01
      7 -0.164093D+00  0.112118D-01  0.847700D-01  0.235484D-01  0.624296D-03
      8  0.239058D-01 -0.864488D-01 -0.129690D-01 -0.205016D-02  0.114568D-01
      9  0.104772D+00  0.633838D-02 -0.301499D+00  0.133126D-01  0.352933D-03
     10 -0.766615D-01 -0.632334D-01  0.192191D-01  0.685913D-03 -0.274865D-03
     11 -0.459652D-01 -0.348641D+00  0.266568D-02 -0.185833D-03 -0.453272D-03
     12  0.184871D-01 -0.318452D-02 -0.706812D-01 -0.362747D-02 -0.246842D-01
     13 -0.323550D+00  0.100973D+00  0.172466D-01  0.821460D-04  0.229761D-02
     14  0.716715D-01 -0.103989D+00  0.695350D-02  0.332621D-02  0.438485D-02
     15  0.110845D-01  0.827281D-02 -0.918724D-01 -0.227927D-01  0.955484D-02
     16  0.419041D-03 -0.122393D-05  0.000000D+00 -0.350750D+00  0.637790D-03
     17 -0.109803D-02  0.289388D-02  0.000000D+00 -0.161335D-01 -0.807020D-01
     18  0.247802D-01 -0.585752D-03  0.000000D+00  0.152194D-01 -0.105779D-01
     19  0.361371D-02  0.194709D-02  0.000000D+00 -0.145743D+00  0.104728D+00
     20  0.190530D-02  0.173948D-02  0.000000D+00  0.121904D+00 -0.276935D+00
     21 -0.134407D-01  0.206256D-01  0.000000D+00 -0.175039D-01  0.823353D-02
     22  0.128256D-01  0.501807D-02  0.000000D+00 -0.105299D+00 -0.128479D-01
     23  0.786719D-02  0.235744D-01  0.000000D+00 -0.140670D-01 -0.120376D+00
     24 -0.586810D-02 -0.101447D-01  0.000000D+00 -0.453722D-01 -0.786719D-01
                6             7             8             9            10 
      6  0.652662D+00
      7  0.000000D+00  0.139915D+00
      8  0.000000D+00 -0.754331D-02  0.601476D-01
      9  0.000000D+00 -0.118440D+00 -0.426445D-02  0.282464D+00
     10  0.000000D+00  0.732377D-03 -0.196140D-01  0.414034D-03  0.605338D-01
     11  0.000000D+00 -0.310000D-04  0.387929D-02 -0.175252D-04  0.486124D-01
     12  0.000000D+00  0.441882D-02  0.326719D-01  0.249809D-02 -0.184942D-01
     13  0.000000D+00 -0.102634D-03  0.390484D-02 -0.580221D-04  0.140259D-01
     14  0.000000D+00 -0.426183D-02  0.117920D-01 -0.240934D-02  0.349145D-01
     15  0.000000D+00  0.292514D-01 -0.154385D-01  0.165367D-01 -0.113889D-02
     16  0.461548D-02  0.000000D+00  0.334576D-05  0.000000D+00  0.163725D-05
     17 -0.965020D-02  0.000000D+00  0.110529D-02  0.000000D+00  0.540876D-03
     18 -0.784564D-01  0.000000D+00  0.000000D+00  0.000000D+00  0.000000D+00
     19 -0.111427D-01  0.000000D+00 -0.932034D-03  0.000000D+00 -0.456093D-03
     20 -0.145162D-03  0.000000D+00 -0.580087D-03  0.000000D+00 -0.283867D-03
     21 -0.769027D-01  0.000000D+00  0.000000D+00  0.000000D+00  0.000000D+00
     22 -0.356580D-01  0.000000D+00  0.232553D-02  0.000000D+00  0.113800D-02
     23 -0.613257D-01  0.000000D+00 -0.135205D-02  0.000000D+00 -0.661627D-03
     24 -0.301867D+00  0.000000D+00  0.000000D+00  0.000000D+00  0.000000D+00
               11            12            13            14            15 
     11  0.350920D+00
     12 -0.283826D-02  0.680271D-01
     13 -0.231817D-02 -0.784266D-03  0.309803D+00
     14 -0.577085D-02 -0.196493D-02 -0.105010D+00  0.932046D-01
     15  0.190100D-03  0.156075D-03 -0.164043D-01 -0.257924D-02  0.751796D-01
     16  0.000000D+00  0.000000D+00  0.000000D+00 -0.153334D-05  0.000000D+00
     17 -0.887843D-04  0.000000D+00 -0.204404D-03 -0.506547D-03  0.000000D+00
     18  0.000000D+00  0.000000D+00  0.000000D+00  0.000000D+00  0.000000D+00
     19  0.748672D-04  0.000000D+00  0.172363D-03  0.427145D-03  0.000000D+00
     20  0.465965D-04  0.000000D+00  0.107277D-03  0.265850D-03  0.000000D+00
     21  0.000000D+00  0.000000D+00  0.000000D+00  0.000000D+00  0.000000D+00
     22 -0.186802D-03  0.000000D+00 -0.430066D-03 -0.106578D-02  0.000000D+00
     23  0.108605D-03  0.000000D+00  0.250037D-03  0.619633D-03  0.000000D+00
     24  0.000000D+00  0.000000D+00  0.000000D+00  0.000000D+00  0.000000D+00
               16            17            18            19            20 
     16  0.350878D+00
     17 -0.732270D-03  0.506480D-01
     18 -0.473527D-02  0.103722D-01  0.713004D-01
     19  0.759848D-04  0.320484D-01 -0.123367D-02  0.131366D+00
     20  0.472636D-04  0.199120D-01 -0.763346D-03 -0.130992D+00  0.260813D+00
     21 -0.111315D-05 -0.135240D-02  0.174873D-03  0.120231D-01  0.521837D-03
     22 -0.623688D-03 -0.144211D-01 -0.340307D-01  0.109712D-01  0.731242D-02
     23  0.468965D-04  0.673822D-02  0.155474D-02 -0.730111D-02 -0.526113D-02
     24  0.120897D-03  0.630350D-03  0.698111D-02  0.353271D-03  0.386671D-03
               21            22            23            24 
     21  0.702075D-01
     22  0.189226D-01  0.814183D-01
     23 -0.280286D-01  0.138656D-01  0.959487D-01
     24  0.652033D-02  0.507661D-01  0.877996D-01  0.288365D+00
 Force constants in internal coordinates: 
                1             2             3             4             5 
      1  0.195436D+00
      2  0.000000D+00  0.349422D+00
      3  0.000000D+00  0.000000D+00  0.358957D+00
      4  0.000000D+00  0.000000D+00  0.000000D+00  0.353084D+00
      5  0.000000D+00  0.000000D+00  0.000000D+00  0.000000D+00  0.350961D+00
      6  0.000000D+00  0.000000D+00  0.000000D+00  0.000000D+00  0.000000D+00
      7  0.000000D+00  0.000000D+00  0.000000D+00  0.000000D+00  0.000000D+00
      8  0.000000D+00  0.000000D+00  0.000000D+00  0.000000D+00  0.000000D+00
      9  0.000000D+00  0.000000D+00  0.000000D+00  0.000000D+00  0.000000D+00
     10  0.000000D+00  0.000000D+00  0.000000D+00  0.000000D+00  0.000000D+00
     11  0.000000D+00  0.000000D+00  0.000000D+00  0.000000D+00  0.000000D+00
     12  0.000000D+00  0.000000D+00  0.000000D+00  0.000000D+00  0.000000D+00
     13  0.000000D+00  0.000000D+00  0.000000D+00  0.000000D+00  0.000000D+00
     14  0.000000D+00  0.000000D+00  0.000000D+00  0.000000D+00  0.000000D+00
     15  0.000000D+00  0.000000D+00  0.000000D+00  0.000000D+00  0.000000D+00
     16  0.000000D+00  0.000000D+00  0.000000D+00  0.000000D+00  0.000000D+00
     17  0.000000D+00  0.000000D+00  0.000000D+00  0.000000D+00  0.000000D+00
     18  0.000000D+00  0.000000D+00  0.000000D+00  0.000000D+00  0.000000D+00
                6             7             8             9            10 
      6  0.342328D+00
      7  0.000000D+00  0.333290D+00
      8  0.000000D+00  0.000000D+00  0.308908D+00
      9  0.000000D+00  0.000000D+00  0.213375D-01  0.283300D+00
     10  0.000000D+00  0.000000D+00  0.142051D+00  0.655045D-03  0.313413D+00
     11  0.000000D+00  0.000000D+00  0.000000D+00  0.000000D+00  0.000000D+00
     12  0.000000D+00  0.000000D+00  0.000000D+00  0.000000D+00  0.000000D+00
     13  0.000000D+00  0.000000D+00  0.000000D+00  0.000000D+00  0.000000D+00
     14  0.000000D+00  0.000000D+00  0.351264D-02 -0.742138D-01 -0.484410D-02
     15  0.000000D+00  0.000000D+00  0.193284D-01  0.885602D-02  0.359111D-01
     16  0.000000D+00  0.000000D+00  0.000000D+00  0.000000D+00  0.000000D+00
     17  0.000000D+00  0.000000D+00  0.000000D+00  0.000000D+00  0.000000D+00
     18  0.000000D+00  0.000000D+00  0.000000D+00  0.000000D+00  0.000000D+00
               11            12            13            14            15 
     11  0.300816D+00
     12  0.744017D-03  0.300105D+00
     13  0.738660D-01  0.694735D-01  0.258185D+00
     14  0.000000D+00  0.000000D+00  0.000000D+00  0.219391D+00
     15  0.000000D+00  0.000000D+00  0.000000D+00 -0.159576D+00  0.212682D+00
     16  0.249580D-02 -0.256463D-02 -0.249784D-03  0.690000D-02  0.690000D-02
     17 -0.616938D-02  0.448934D-01  0.537012D-02  0.230000D-02  0.230000D-02
     18  0.524149D-01 -0.532103D-01  0.105163D-02  0.230000D-02  0.230000D-02
               16            17            18 
     16  0.484558D-01
     17  0.257384D-01  0.213930D+00
     18 -0.322457D-02 -0.277847D-01  0.520697D-01
 Leave Link  716 at Wed May 26 19:13:35 2021, MaxMem=   13107200 cpu:       0.0
 (Enter /programs/64bit/g09/g09-gfortran/bin/l103.exe)

 GradGradGradGradGradGradGradGradGradGradGradGradGradGradGradGradGradGrad
 Berny optimization.
 Search for a local minimum.
 Step number   1 out of a maximum of    2
 All quantities printed in internal units (Hartrees-Bohrs-Radians)
 Second derivative matrix not updated -- first step.
 The second derivative matrix:
                          d1        a1        t1        d2        a2
           d1           0.19544
           a1           0.00000   0.30891
           t1           0.00000   0.00351   0.21939
           d2           0.00000  -0.00000  -0.00000   0.34942
           a2           0.00000   0.02134  -0.07421   0.00000   0.28330
           t2          -0.00000   0.01933  -0.15958   0.00000   0.00886
           d3           0.00000   0.00000  -0.00000  -0.00000   0.00000
           d4          -0.00000  -0.00000   0.00000   0.00000  -0.00000
           a3          -0.00000   0.14205  -0.00484  -0.00000   0.00066
           d5          -0.00000   0.00000  -0.00000   0.00000   0.00000
           a4          -0.00000   0.00000   0.00000   0.00000   0.00000
           t3           0.00000   0.00000   0.00690   0.00000   0.00000
           d6          -0.00000   0.00000   0.00000   0.00000  -0.00000
           a5          -0.00000   0.00000  -0.00000   0.00000   0.00000
           t4          -0.00000   0.00000   0.00230   0.00000   0.00000
           d7           0.00000   0.00000   0.00000   0.00000   0.00000
           a6           0.00000   0.00000  -0.00000   0.00000  -0.00000
           t5          -0.00000   0.00000   0.00230   0.00000  -0.00000
                          t2        d3        d4        a3        d5
           t2           0.21268
           d3          -0.00000   0.35896
           d4           0.00000   0.00000   0.35308
           a3           0.03591  -0.00000  -0.00000   0.31341
           d5          -0.00000   0.00000  -0.00000  -0.00000   0.35096
           a4           0.00000  -0.00000   0.00000   0.00000  -0.00000
           t3           0.00690  -0.00000  -0.00000  -0.00000  -0.00000
           d6          -0.00000  -0.00000  -0.00000  -0.00000   0.00000
           a5          -0.00000   0.00000   0.00000   0.00000  -0.00000
           t4           0.00230   0.00000  -0.00000  -0.00000   0.00000
           d7           0.00000   0.00000   0.00000   0.00000   0.00000
           a6          -0.00000  -0.00000  -0.00000  -0.00000  -0.00000
           t5           0.00230  -0.00000  -0.00000  -0.00000  -0.00000
                          a4        t3        d6        a5        t4
           a4           0.30082
           t3           0.00250   0.04846
           d6          -0.00000  -0.00000   0.34233
           a5           0.00074  -0.00256   0.00000   0.30011
           t4          -0.00617   0.02574  -0.00000   0.04489   0.21393
           d7          -0.00000  -0.00000  -0.00000  -0.00000  -0.00000
           a6           0.07387  -0.00025  -0.00000   0.06947   0.00537
           t5           0.05241  -0.00322  -0.00000  -0.05321  -0.02778
                          d7        a6        t5
           d7           0.33329
           a6          -0.00000   0.25819
           t5          -0.00000   0.00105   0.05207
     Eigenvalues --- 1000.000001000.000001000.000001000.000001000.00000
     Eigenvalues --- 1000.000001000.000001000.000001000.000001000.00000
     Eigenvalues --- 1000.000001000.000001000.000001000.000001000.00000
     Eigenvalues --- 1000.000001000.000001000.00000
 Angle between quadratic step and forces=  90.00 degrees.
 Linear search not attempted -- first point.
 Variable       Old X    -DE/DX   Delta X   Delta X   Delta X     New X
                                 (Linear)    (Quad)   (Total)
    d1        3.15521   0.01665   0.00000   0.00000   0.00000   3.15521
    a1        2.62706  -0.04879   0.00000   0.00000   0.00000   2.62706
    t1        1.73349   0.01690   0.00000   0.00000   0.00000   1.73349
    d2        2.05769   0.00318   0.00000   0.00000   0.00000   2.05769
    a2        1.55087   0.01690   0.00000   0.00000   0.00000   1.55087
    t2       -2.75805   0.01928   0.00000   0.00000   0.00000  -2.75805
    d3        2.04245   0.01088   0.00000   0.00000   0.00000   2.04245
    d4        2.05177   0.00084   0.00000   0.00000   0.00000   2.05177
    a3        1.51957   0.09191   0.00000   0.00000   0.00000   1.51957
    d5        2.05519   0.00040   0.00000   0.00000   0.00000   2.05519
    a4        1.58784   0.03317   0.00000   0.00000   0.00000   1.58784
    t3        3.13857   0.00118   0.00000   0.00000   0.00000   3.13857
    d6        2.06939  -0.00030   0.00000   0.00000   0.00000   2.06939
    a5        1.59251   0.04857   0.00000   0.00000   0.00000   1.59251
    t4        2.13054  -0.04885   0.00000   0.00000   0.00000   2.13054
    d7        2.08478  -0.00020   0.00000   0.00000   0.00000   2.08478
    a6        2.72461  -0.10046   0.00000   0.00000   0.00000   2.72461
    t5       -2.09439   0.00004   0.00000   0.00000   0.00000  -2.09439
         Item               Value     Threshold  Converged?
 Maximum Force            0.000000     0.000450     YES
 RMS     Force            0.000000     0.000300     YES
 Maximum Displacement     0.000000     0.001800     YES
 RMS     Displacement     0.000000     0.001200     YES
 Predicted change in Energy=-0.000000D+00
 Optimization completed.
    -- Stationary point found.
                       ----------------------------
                       !   Optimized Parameters   !
                       ! (Angstroms and Degrees)  !
 ----------------------                            ----------------------
 !      Name          Value   Derivative information (Atomic Units)     !
 ------------------------------------------------------------------------
 !       d1          1.6697   -DE/DX =    0.0166                        !
 !       a1        150.5193   -DE/DX =   -0.0488                        !
 !       t1         99.3219   -DE/DX =    0.0169                        !
 !       d2          1.0889   -DE/DX =    0.0032                        !
 !       a2         88.8586   -DE/DX =    0.0169                        !
 !       t2       -158.0248   -DE/DX =    0.0193                        !
 !       d3          1.0808   -DE/DX =    0.0109                        !
 !       d4          1.0858   -DE/DX =    0.0008                        !
 !       a3         87.0652   -DE/DX =    0.0919                        !
 !       d5          1.0876   -DE/DX =    0.0004                        !
 !       a4         90.9765   -DE/DX =    0.0332                        !
 !       t3        179.8266   -DE/DX =    0.0012                        !
 !       d6          1.0951   -DE/DX =   -0.0003                        !
 !       a5         91.2442   -DE/DX =    0.0486                        !
 !       t4        122.0711   -DE/DX =   -0.0489                        !
 !       d7          1.1032   -DE/DX =   -0.0002                        !
 !       a6        156.1089   -DE/DX =   -0.1005                        !
 !       t5       -119.9999   -DE/DX =    0.0                           !
 ------------------------------------------------------------------------
 GradGradGradGradGradGradGradGradGradGradGradGradGradGradGradGradGradGrad

 Leave Link  103 at Wed May 26 19:13:35 2021, MaxMem=   13107200 cpu:       0.0
 (Enter /programs/64bit/g09/g09-gfortran/bin/l9999.exe)
 1\1\GINC-MOLMOD\Force\RB3LYP\6-31+G(d,p)\C2H6\OSPITE\26-May-2021\1\\#p
  b3lyp/6-31+g(d,p) force nosym\\c2h6 molecule\\0,1\C\C,1,d1\H,1,d2,2,a
 1\H,1,d3,2,a2,3,t1,0\H,1,d4,2,a3,3,t2,0\H,2,d5,1,a4,3,t3,0\H,2,d6,1,a5
 ,6,t4,0\H,2,d7,1,a6,6,t5,0\\d1=1.66966712\a1=150.51925047\t1=99.321916
 11\d2=1.08888169\a2=88.85858687\t2=-158.02475714\d3=1.0808181\d4=1.085
 75004\a3=87.06519654\d5=1.08756042\a4=90.97647654\t3=179.82656384\d6=1
 .09507437\a5=91.24417923\t4=122.0710782\d7=1.103216\a6=156.10888477\t5
 =-119.99994737\\Version=EM64L-G09RevA.02\HF=-79.7213785\RMSD=3.989e-09
 \RMSF=2.241e-02\Dipole=-0.1014409,-0.2097919,-0.0089965\Quadrupole=0.0
 712751,-0.6080885,0.5368134,-0.7462614,-0.5277345,0.1614302\PG=C01 [X(
 C2H6)]\\@


 WERE I TO AWAIT PERFECTION, MY BOOK WOULD NEVER BE FINISHED.
                                    -- HISTORY OF CHINESE WRITING

                                       TAI T'UNG, 13TH CENTURY
 Job cpu time:  0 days  0 hours  0 minutes 10.2 seconds.
 File lengths (MBytes):  RWF=      5 Int=      0 D2E=      0 Chk=      1 Scr=      1
 Normal termination of Gaussian 09 at Wed May 26 19:13:35 2021.
