 Entering Gaussian System, Link 0=g09
 Input=c2h6_006.com
 Output=c2h6_006.log
 Initial command:
 /programs/64bit/g09/g09-gfortran/bin/l1.exe /data/scratch/Gau-5973.inp -scrdir=/data/scratch/
 Entering Link 1 = /programs/64bit/g09/g09-gfortran/bin/l1.exe PID=      5974.
  
 Copyright (c) 1988,1990,1992,1993,1995,1998,2003,2009, Gaussian, Inc.
                  All Rights Reserved.
  
 This is part of the Gaussian(R) 09 program.  It is based on
 the Gaussian(R) 03 system (copyright 2003, Gaussian, Inc.),
 the Gaussian(R) 98 system (copyright 1998, Gaussian, Inc.),
 the Gaussian(R) 94 system (copyright 1995, Gaussian, Inc.),
 the Gaussian 92(TM) system (copyright 1992, Gaussian, Inc.),
 the Gaussian 90(TM) system (copyright 1990, Gaussian, Inc.),
 the Gaussian 88(TM) system (copyright 1988, Gaussian, Inc.),
 the Gaussian 86(TM) system (copyright 1986, Carnegie Mellon
 University), and the Gaussian 82(TM) system (copyright 1983,
 Carnegie Mellon University). Gaussian is a federally registered
 trademark of Gaussian, Inc.
  
 This software contains proprietary and confidential information,
 including trade secrets, belonging to Gaussian, Inc.
  
 This software is provided under written license and may be
 used, copied, transmitted, or stored only in accord with that
 written license.
  
 The following legend is applicable only to US Government
 contracts under FAR:
  
                    RESTRICTED RIGHTS LEGEND
  
 Use, reproduction and disclosure by the US Government is
 subject to restrictions as set forth in subparagraphs (a)
 and (c) of the Commercial Computer Software - Restricted
 Rights clause in FAR 52.227-19.
  
 Gaussian, Inc.
 340 Quinnipiac St., Bldg. 40, Wallingford CT 06492
  
  
 ---------------------------------------------------------------
 Warning -- This program may not be used in any manner that
 competes with the business of Gaussian, Inc. or will provide
 assistance to any competitor of Gaussian, Inc.  The licensee
 of this program is prohibited from giving any competitor of
 Gaussian, Inc. access to this program.  By using this program,
 the user acknowledges that Gaussian, Inc. is engaged in the
 business of creating and licensing software in the field of
 computational chemistry and represents and warrants to the
 licensee that it is not a competitor of Gaussian, Inc. and that
 it will not use this program in any manner prohibited above.
 ---------------------------------------------------------------
  

 Cite this work as:
 Gaussian 09, Revision A.02,
 M. J. Frisch, G. W. Trucks, H. B. Schlegel, G. E. Scuseria, 
 M. A. Robb, J. R. Cheeseman, G. Scalmani, V. Barone, B. Mennucci, 
 G. A. Petersson, H. Nakatsuji, M. Caricato, X. Li, H. P. Hratchian, 
 A. F. Izmaylov, J. Bloino, G. Zheng, J. L. Sonnenberg, M. Hada, 
 M. Ehara, K. Toyota, R. Fukuda, J. Hasegawa, M. Ishida, T. Nakajima, 
 Y. Honda, O. Kitao, H. Nakai, T. Vreven, J. A. Montgomery, Jr., 
 J. E. Peralta, F. Ogliaro, M. Bearpark, J. J. Heyd, E. Brothers, 
 K. N. Kudin, V. N. Staroverov, R. Kobayashi, J. Normand, 
 K. Raghavachari, A. Rendell, J. C. Burant, S. S. Iyengar, J. Tomasi, 
 M. Cossi, N. Rega, J. M. Millam, M. Klene, J. E. Knox, J. B. Cross, 
 V. Bakken, C. Adamo, J. Jaramillo, R. Gomperts, R. E. Stratmann, 
 O. Yazyev, A. J. Austin, R. Cammi, C. Pomelli, J. W. Ochterski, 
 R. L. Martin, K. Morokuma, V. G. Zakrzewski, G. A. Voth, 
 P. Salvador, J. J. Dannenberg, S. Dapprich, A. D. Daniels, 
 O. Farkas, J. B. Foresman, J. V. Ortiz, J. Cioslowski, 
 and D. J. Fox, Gaussian, Inc., Wallingford CT, 2009.
 
 ******************************************
 Gaussian 09:  EM64L-G09RevA.02 11-Jun-2009
                26-May-2021 
 ******************************************
 %chk=c2h6_006.chk
 %mem=100MB
 --------------------------------
 #p b3lyp/6-31+g(d,p) force nosym
 --------------------------------
 1/10=7,30=1,38=1/1,3;
 2/12=2,15=1,17=6,18=5,40=1/2;
 3/5=1,6=6,7=111,11=2,16=1,25=1,30=1,71=1,74=-5/1,2,3;
 4//1;
 5/5=2,38=5/2;
 6/7=2,8=2,9=2,10=2,28=1/1;
 7/29=1,30=1/1,2,3,16;
 1/10=7,30=1/3;
 99//99;
 Leave Link    1 at Wed May 26 19:08:32 2021, MaxMem=   13107200 cpu:       0.0
 (Enter /programs/64bit/g09/g09-gfortran/bin/l101.exe)
 -------------
 c2h6 molecule
 -------------
 Symbolic Z-matrix:
 Charge =  0 Multiplicity = 1
 C1
 C2                   1    d1
 H3                   1    d2       2    a1
 H4                   1    d3       2    a2       3    t1       0
 H5                   1    d4       2    a3       3    t2       0
 H6                   2    d5       1    a4       3    t3       0
 H7                   2    d6       1    a5       6    t4       0
 H8                   2    d7       1    a6       6    t5       0
       Variables:
       Constants:
  d1                    3.41488                  
  a1                  178.98481                  
  t1                  119.98988                  
  d2                    1.13375                  
  a2                  109.99103                  
  t2                 -178.98963                  
  d3                    1.17264                  
  d4                    1.16274                  
  a3                  108.98964                  
  d5                    1.10672                  
  a4                  108.9924                   
  t3                  179.99993                  
  d6                    1.1065                   
  a5                  108.99231                  
  t4                  120.00099                  
  d7                    1.17086                  
  a6                  178.98789                  
  t5                 -120.                       
 
 NAtoms=      8 NQM=      8 NQMF=      0 NMic=      0 NMicF=      0 NTot=      8.
                    Isotopes and Nuclear Properties:
 (Nuclear quadrupole moments (NQMom) in fm**2, nuclear magnetic moments (NMagM)
  in nuclear magnetons)

  Atom         1           2           3           4           5           6           7           8
 IAtWgt=          12          12           1           1           1           1           1           1
 AtmWgt=  12.0000000  12.0000000   1.0078250   1.0078250   1.0078250   1.0078250   1.0078250   1.0078250
 NucSpn=           0           0           1           1           1           1           1           1
 AtZEff=   0.0000000   0.0000000   0.0000000   0.0000000   0.0000000   0.0000000   0.0000000   0.0000000
 NQMom=    0.0000000   0.0000000   0.0000000   0.0000000   0.0000000   0.0000000   0.0000000   0.0000000
 NMagM=    0.0000000   0.0000000   2.7928460   2.7928460   2.7928460   2.7928460   2.7928460   2.7928460
 Leave Link  101 at Wed May 26 19:08:32 2021, MaxMem=   13107200 cpu:       0.0
 (Enter /programs/64bit/g09/g09-gfortran/bin/l103.exe)

 GradGradGradGradGradGradGradGradGradGradGradGradGradGradGradGradGradGrad
 Berny optimization.
 Initialization pass.
                       ----------------------------
                       !    Initial Parameters    !
                       ! (Angstroms and Degrees)  !
 ----------------------                            ----------------------
 !      Name          Value   Derivative information (Atomic Units)     !
 ------------------------------------------------------------------------
 !       d1          3.4149   Frozen                                    !
 !       a1        178.9848   Frozen                                    !
 !       t1        119.9899   Frozen                                    !
 !       d2          1.1337   Frozen                                    !
 !       a2        109.991    Frozen                                    !
 !       t2       -178.9896   Frozen                                    !
 !       d3          1.1726   Frozen                                    !
 !       d4          1.1627   Frozen                                    !
 !       a3        108.9896   Frozen                                    !
 !       d5          1.1067   Frozen                                    !
 !       a4        108.9924   Frozen                                    !
 !       t3        179.9999   Frozen                                    !
 !       d6          1.1065   Frozen                                    !
 !       a5        108.9923   Frozen                                    !
 !       t4        120.001    Frozen                                    !
 !       d7          1.1709   Frozen                                    !
 !       a6        178.9879   Frozen                                    !
 !       t5       -120.0      Frozen                                    !
 ------------------------------------------------------------------------
 Trust Radius=3.00D-01 FncErr=1.00D-07 GrdErr=1.00D-07
 Number of steps in this run=   2 maximum allowed number of steps=   2.
 GradGradGradGradGradGradGradGradGradGradGradGradGradGradGradGradGradGrad

 Leave Link  103 at Wed May 26 19:08:32 2021, MaxMem=   13107200 cpu:       0.0
 (Enter /programs/64bit/g09/g09-gfortran/bin/l202.exe)
                          Input orientation:                          
 ---------------------------------------------------------------------
 Center     Atomic      Atomic             Coordinates (Angstroms)
 Number     Number       Type             X           Y           Z
 ---------------------------------------------------------------------
      1          6           0        0.000000    0.000000    0.000000
      2          6           0        0.000000    0.000000    3.414878
      3          1           0        0.020087    0.000000   -1.133568
      4          1           0       -0.550825   -0.954446   -0.400895
      5          1           0       -1.099289    0.019387   -0.378352
      6          1           0       -1.046475    0.000001    3.775053
      7          1           0        0.523148   -0.906086    3.774980
      8          1           0        0.010341    0.017911    4.585560
 ---------------------------------------------------------------------
                    Distance matrix (angstroms):
                    1          2          3          4          5
     1  C    0.000000
     2  C    3.414878   0.000000
     3  H    1.133746   4.548491   0.000000
     4  H    1.172643   3.971713   1.331810   0.000000
     5  H    1.162739   3.949356   1.350455   1.117887   0.000000
     6  H    3.917415   1.106723   5.023158   4.312213   4.153786
     7  H    3.917289   1.106503   5.016762   4.312040   4.554006
     8  H    4.585607   1.170865   5.719165   5.111274   5.086424
                    6          7          8
     6  H    0.000000
     7  H    1.812377   0.000000
     8  H    1.331954   1.331834   0.000000
 Symmetry turned off by external request.
 Stoichiometry    C2H6
 Framework group  C1[X(C2H6)]
 Deg. of freedom    18
 Full point group                 C1      NOp   1
 Rotational constants (GHZ):    116.7969608      4.7852878      4.7368377
 Leave Link  202 at Wed May 26 19:08:33 2021, MaxMem=   13107200 cpu:       0.0
 (Enter /programs/64bit/g09/g09-gfortran/bin/l301.exe)
 Standard basis: 6-31+G(d,p) (6D, 7F)
 Ernie: Thresh=  0.10000D-02 Tol=  0.10000D-05 Strict=F.
 Integral buffers will be    131072 words long.
 Raffenetti 2 integral format.
 Two-electron integral symmetry is turned off.
    68 basis functions,   106 primitive gaussians,    68 cartesian basis functions
     9 alpha electrons        9 beta electrons
       nuclear repulsion energy        30.2314640970 Hartrees.
 IExCor=  402 DFT=T Ex+Corr=B3LYP ExCW=0 ScaHFX=  0.200000
 ScaDFX=  0.800000  0.720000  1.000000  0.810000 ScalE2=  1.000000  1.000000
 IRadAn=      0 IRanWt=     -1 IRanGd=            0 ICorTp=0
 NAtoms=    8 NActive=    8 NUniq=    8 SFac= 7.50D-01 NAtFMM=   80 NAOKFM=F Big=F
 Leave Link  301 at Wed May 26 19:08:33 2021, MaxMem=   13107200 cpu:       0.0
 (Enter /programs/64bit/g09/g09-gfortran/bin/l302.exe)
 NPDir=0 NMtPBC=     1 NCelOv=     1 NCel=       1 NClECP=     1 NCelD=      1
         NCelK=      1 NCelE2=     1 NClLst=     1 CellRange=     0.0.
 One-electron integrals computed using PRISM.
 NBasis=    68 RedAO= T  NBF=    68
 NBsUse=    68 1.00D-06 NBFU=    68
 Precomputing XC quadrature grid using
 IXCGrd= 2 IRadAn=           0 IRanWt=          -1 IRanGd=           0 AccXCQ= 1.00D-10.
 NRdTot=     518 NPtTot=       65392 NUsed=       69135 NTot=       69167
 NSgBfM=    68    68    68    68    68 NAtAll=     8     8.
 Leave Link  302 at Wed May 26 19:08:33 2021, MaxMem=   13107200 cpu:       0.1
 (Enter /programs/64bit/g09/g09-gfortran/bin/l303.exe)
 DipDrv:  MaxL=1.
 Leave Link  303 at Wed May 26 19:08:33 2021, MaxMem=   13107200 cpu:       0.0
 (Enter /programs/64bit/g09/g09-gfortran/bin/l401.exe)
 Harris functional with IExCor=  402 diagonalized for initial guess.
 ExpMin= 4.38D-02 ExpMax= 3.05D+03 ExpMxC= 4.57D+02 IAcc=2 IRadAn=         0 AccDes= 0.00D+00
 HarFok:  IExCor=  402 AccDes= 0.00D+00 IRadAn=         0 IDoV= 1
 ScaDFX=  1.000000  1.000000  1.000000  1.000000
 FoFCou: FMM=F IPFlag=           0 FMFlag=      100000 FMFlg1=           0
         NFxFlg=           0 DoJE=T BraDBF=F KetDBF=T FulRan=T
         Omega=  0.000000  0.000000  1.000000  0.000000  0.000000 ICntrl=     500 IOpCl=  0
         NMat0=    1 NMatS0=    1 NMatT0=    0 NMatD0=    1 NMtDS0=    0 NMtDT0=    0
         I1Cent=           4 NGrid=           0.
 Symmetry not used in FoFCou.
 Harris En= -79.4280908634478    
 Leave Link  401 at Wed May 26 19:08:33 2021, MaxMem=   13107200 cpu:       0.7
 (Enter /programs/64bit/g09/g09-gfortran/bin/l502.exe)
 Closed shell SCF:
 Requested convergence on RMS density matrix=1.00D-08 within 128 cycles.
 Requested convergence on MAX density matrix=1.00D-06.
 Requested convergence on             energy=1.00D-06.
 No special actions if energy rises.
 Using DIIS extrapolation, IDIIS=  1040.
 Two-electron integral symmetry not used.
        69050 words used for storage of precomputed grid.
 Keep R1 ints in memory in canonical form, NReq=3743435.
 IEnd=      101900 IEndB=      101900 NGot=    13107200 MDV=    10273574
 LenX=    10273574 LenY=    10268509
 Symmetry not used in FoFDir.
 MinBra= 0 MaxBra= 2 Meth= 1.
 IRaf=       0 NMat=   1 IRICut=       1 DoRegI=T DoRafI=F ISym2E= 0 JSym2E=0.

 Cycle   1  Pass 1  IDiag  1:
 E= -79.0238390509208    
 DIIS: error= 4.66D-02 at cycle   1 NSaved=   1.
 NSaved= 1 IEnMin= 1 EnMin= -79.0238390509208     IErMin= 1 ErrMin= 4.66D-02
 ErrMax= 4.66D-02 EMaxC= 1.00D-01 BMatC= 1.63D-01 BMatP= 1.63D-01
 IDIUse=3 WtCom= 5.34D-01 WtEn= 4.66D-01
 Coeff-Com:  0.100D+01
 Coeff-En:   0.100D+01
 Coeff:      0.100D+01
 Gap=    -0.427 Goal=   None    Shift=    0.000
 GapD=   -0.427 DampG=0.250 DampE=0.500 DampFc=0.2500 IDamp=-1.
 Damping current iteration by 2.50D-01
 RMSDP=5.24D-02 MaxDP=1.20D+00              OVMax= 9.94D-01

 Cycle   2  Pass 1  IDiag  1:
 E= -78.9493994499201     Delta-E=        0.074439601001 Rises=F Damp=T
 DIIS: error= 2.22D-02 at cycle   2 NSaved=   2.
 NSaved= 2 IEnMin= 1 EnMin= -79.0238390509208     IErMin= 2 ErrMin= 2.22D-02
 ErrMax= 2.22D-02 EMaxC= 1.00D-01 BMatC= 3.00D-02 BMatP= 1.63D-01
 IDIUse=3 WtCom= 7.78D-01 WtEn= 2.22D-01
 Coeff-Com:  0.886D-01 0.911D+00
 Coeff-En:   0.578D+00 0.422D+00
 Coeff:      0.197D+00 0.803D+00
 Gap=    -0.145 Goal=   None    Shift=    0.000
 RMSDP=1.54D-02 MaxDP=2.64D-01 DE= 7.44D-02 OVMax= 9.96D-01

 Cycle   3  Pass 1  IDiag  1:
 E= -79.1304007198844     Delta-E=       -0.181001269964 Rises=F Damp=F
 DIIS: error= 3.19D-02 at cycle   3 NSaved=   3.
 NSaved= 3 IEnMin= 3 EnMin= -79.1304007198844     IErMin= 2 ErrMin= 2.22D-02
 ErrMax= 3.19D-02 EMaxC= 1.00D-01 BMatC= 6.06D-02 BMatP= 3.00D-02
 IDIUse=2 WtCom= 0.00D+00 WtEn= 1.00D+00
 Coeff-En:   0.000D+00 0.291D+00 0.709D+00
 Coeff:      0.000D+00 0.291D+00 0.709D+00
 Gap=    -0.106 Goal=   None    Shift=    0.000
 RMSDP=1.57D-02 MaxDP=2.72D-01 DE=-1.81D-01 OVMax= 9.82D-01

 Cycle   4  Pass 1  IDiag  1:
 E= -78.5924421574884     Delta-E=        0.537958562396 Rises=F Damp=F
 DIIS: error= 6.00D-02 at cycle   4 NSaved=   4.
 NSaved= 4 IEnMin= 3 EnMin= -79.1304007198844     IErMin= 2 ErrMin= 2.22D-02
 ErrMax= 6.00D-02 EMaxC= 1.00D-01 BMatC= 3.59D-01 BMatP= 3.00D-02
 IDIUse=2 WtCom= 0.00D+00 WtEn= 1.00D+00
 Coeff-En:   0.000D+00 0.000D+00 0.677D+00 0.323D+00
 Coeff:      0.000D+00 0.000D+00 0.677D+00 0.323D+00
 Gap=     0.007 Goal=   None    Shift=    0.000
 RMSDP=1.37D-02 MaxDP=1.56D-01 DE= 5.38D-01 OVMax= 8.54D-01

 Cycle   5  Pass 1  IDiag  1:
 E= -79.2957152159724     Delta-E=       -0.703273058484 Rises=F Damp=F
 DIIS: error= 2.17D-02 at cycle   5 NSaved=   5.
 NSaved= 5 IEnMin= 5 EnMin= -79.2957152159724     IErMin= 5 ErrMin= 2.17D-02
 ErrMax= 2.17D-02 EMaxC= 1.00D-01 BMatC= 2.41D-02 BMatP= 3.00D-02
 IDIUse=3 WtCom= 7.83D-01 WtEn= 2.17D-01
 EnCoef did    11 forward-backward iterations
 Coeff-Com:  0.179D-01 0.284D+00 0.368D+00 0.497D-01 0.281D+00
 Coeff-En:   0.197D-01 0.000D+00 0.262D+00 0.000D+00 0.718D+00
 Coeff:      0.183D-01 0.222D+00 0.345D+00 0.389D-01 0.376D+00
 Gap=     0.019 Goal=   None    Shift=    0.000
 RMSDP=6.45D-03 MaxDP=7.85D-02 DE=-7.03D-01 OVMax= 3.78D-01

 Cycle   6  Pass 1  IDiag  1:
 E= -79.3214864499267     Delta-E=       -0.025771233954 Rises=F Damp=F
 DIIS: error= 1.66D-02 at cycle   6 NSaved=   6.
 NSaved= 6 IEnMin= 6 EnMin= -79.3214864499267     IErMin= 6 ErrMin= 1.66D-02
 ErrMax= 1.66D-02 EMaxC= 1.00D-01 BMatC= 1.24D-02 BMatP= 2.41D-02
 IDIUse=3 WtCom= 8.34D-01 WtEn= 1.66D-01
 Coeff-Com: -0.873D-01 0.108D+00 0.428D-01 0.435D-02 0.303D+00 0.629D+00
 Coeff-En:   0.000D+00 0.000D+00 0.000D+00 0.000D+00 0.402D+00 0.598D+00
 Coeff:     -0.728D-01 0.899D-01 0.357D-01 0.363D-02 0.320D+00 0.624D+00
 Gap=     0.036 Goal=   None    Shift=    0.000
 RMSDP=1.27D-03 MaxDP=3.16D-02 DE=-2.58D-02 OVMax= 6.11D-02

 Cycle   7  Pass 1  IDiag  1:
 E= -79.3390656292271     Delta-E=       -0.017579179300 Rises=F Damp=F
 DIIS: error= 1.08D-02 at cycle   7 NSaved=   7.
 NSaved= 7 IEnMin= 7 EnMin= -79.3390656292271     IErMin= 7 ErrMin= 1.08D-02
 ErrMax= 1.08D-02 EMaxC= 1.00D-01 BMatC= 5.25D-03 BMatP= 1.24D-02
 IDIUse=3 WtCom= 8.92D-01 WtEn= 1.08D-01
 Coeff-Com:  0.999D-02 0.511D-02-0.530D-02 0.791D-02 0.121D+00-0.116D+01
 Coeff-Com:  0.202D+01
 Coeff-En:   0.000D+00 0.000D+00 0.000D+00 0.000D+00 0.262D+00 0.000D+00
 Coeff-En:   0.738D+00
 Coeff:      0.891D-02 0.456D-02-0.473D-02 0.706D-02 0.136D+00-0.103D+01
 Coeff:      0.188D+01
 Gap=     0.043 Goal=   None    Shift=    0.000
 RMSDP=6.37D-04 MaxDP=1.17D-02 DE=-1.76D-02 OVMax= 2.74D-02

 Cycle   8  Pass 1  IDiag  1:
 E= -79.3403330882202     Delta-E=       -0.001267458993 Rises=F Damp=F
 DIIS: error= 1.06D-02 at cycle   8 NSaved=   8.
 NSaved= 8 IEnMin= 8 EnMin= -79.3403330882202     IErMin= 8 ErrMin= 1.06D-02
 ErrMax= 1.06D-02 EMaxC= 1.00D-01 BMatC= 5.27D-03 BMatP= 5.25D-03
 IDIUse=3 WtCom= 8.94D-01 WtEn= 1.06D-01
 Coeff-Com:  0.131D-01 0.348D-02-0.127D-01 0.387D-02 0.111D+00-0.127D+01
 Coeff-Com:  0.270D+01-0.552D+00
 Coeff-En:   0.000D+00 0.000D+00 0.000D+00 0.000D+00 0.245D+00 0.000D+00
 Coeff-En:   0.000D+00 0.755D+00
 Coeff:      0.118D-01 0.312D-02-0.114D-01 0.346D-02 0.125D+00-0.114D+01
 Coeff:      0.242D+01-0.414D+00
 Gap=     0.042 Goal=   None    Shift=    0.000
 RMSDP=2.56D-04 MaxDP=4.62D-03 DE=-1.27D-03 OVMax= 1.29D-02

 Cycle   9  Pass 1  IDiag  1:
 E= -79.3431780866883     Delta-E=       -0.002844998468 Rises=F Damp=F
 DIIS: error= 8.91D-03 at cycle   9 NSaved=   9.
 NSaved= 9 IEnMin= 9 EnMin= -79.3431780866883     IErMin= 9 ErrMin= 8.91D-03
 ErrMax= 8.91D-03 EMaxC= 1.00D-01 BMatC= 3.81D-03 BMatP= 5.25D-03
 IDIUse=3 WtCom= 9.11D-01 WtEn= 8.91D-02
 Coeff-Com:  0.271D-01-0.871D-02 0.784D-02 0.771D-02 0.544D-01-0.759D+00
 Coeff-Com:  0.187D+01-0.346D+01 0.326D+01
 Coeff-En:   0.000D+00 0.000D+00 0.000D+00 0.000D+00 0.199D+00 0.000D+00
 Coeff-En:   0.000D+00 0.000D+00 0.801D+00
 Coeff:      0.247D-01-0.793D-02 0.715D-02 0.703D-02 0.673D-01-0.692D+00
 Coeff:      0.170D+01-0.315D+01 0.304D+01
 Gap=     0.038 Goal=   None    Shift=    0.000
 RMSDP=1.19D-03 MaxDP=2.39D-02 DE=-2.84D-03 OVMax= 6.75D-02

 Cycle  10  Pass 1  IDiag  1:
 E= -79.3501750463896     Delta-E=       -0.006996959701 Rises=F Damp=F
 DIIS: error= 9.33D-04 at cycle  10 NSaved=  10.
 NSaved=10 IEnMin=10 EnMin= -79.3501750463896     IErMin=10 ErrMin= 9.33D-04
 ErrMax= 9.33D-04 EMaxC= 1.00D-01 BMatC= 4.63D-05 BMatP= 3.81D-03
 IDIUse=3 WtCom= 9.91D-01 WtEn= 9.33D-03
 Coeff-Com:  0.162D-01-0.766D-02-0.394D-02 0.371D-02 0.197D-01-0.413D+00
 Coeff-Com:  0.783D+00-0.779D+00 0.748D+00 0.633D+00
 Coeff-En:   0.000D+00 0.000D+00 0.000D+00 0.000D+00 0.000D+00 0.000D+00
 Coeff-En:   0.000D+00 0.000D+00 0.000D+00 0.100D+01
 Coeff:      0.160D-01-0.759D-02-0.390D-02 0.368D-02 0.196D-01-0.409D+00
 Coeff:      0.775D+00-0.772D+00 0.741D+00 0.637D+00
 Gap=     0.039 Goal=   None    Shift=    0.000
 RMSDP=4.49D-04 MaxDP=4.98D-03 DE=-7.00D-03 OVMax= 2.87D-02

 Cycle  11  Pass 1  IDiag  1:
 E= -79.3498969719303     Delta-E=        0.000278074459 Rises=F Damp=F
 DIIS: error= 2.34D-03 at cycle  11 NSaved=  11.
 NSaved=11 IEnMin=10 EnMin= -79.3501750463896     IErMin=10 ErrMin= 9.33D-04
 ErrMax= 2.34D-03 EMaxC= 1.00D-01 BMatC= 2.90D-04 BMatP= 4.63D-05
 IDIUse=3 WtCom= 9.91D-01 WtEn= 9.33D-03
 Coeff-Com: -0.138D-02 0.361D-02 0.385D-02 0.110D-02-0.263D-01 0.136D+00
 Coeff-Com: -0.268D+00 0.656D+00-0.120D+01 0.348D-01 0.166D+01
 Coeff-En:   0.000D+00 0.000D+00 0.000D+00 0.000D+00 0.000D+00 0.000D+00
 Coeff-En:   0.000D+00 0.000D+00 0.000D+00 0.823D+00 0.177D+00
 Coeff:     -0.137D-02 0.358D-02 0.381D-02 0.109D-02-0.261D-01 0.135D+00
 Coeff:     -0.265D+00 0.650D+00-0.119D+01 0.421D-01 0.165D+01
 Gap=     0.038 Goal=   None    Shift=    0.000
 RMSDP=7.51D-04 MaxDP=1.18D-02 DE= 2.78D-04 OVMax= 3.72D-02

 Cycle  12  Pass 1  IDiag  1:
 E= -79.3505571803487     Delta-E=       -0.000660208418 Rises=F Damp=F
 DIIS: error= 3.69D-04 at cycle  12 NSaved=  12.
 NSaved=12 IEnMin=12 EnMin= -79.3505571803487     IErMin=12 ErrMin= 3.69D-04
 ErrMax= 3.69D-04 EMaxC= 1.00D-01 BMatC= 7.69D-06 BMatP= 4.63D-05
 IDIUse=3 WtCom= 9.96D-01 WtEn= 3.69D-03
 Coeff-Com: -0.498D-02 0.179D-02 0.821D-03-0.912D-03 0.598D-02 0.507D-01
 Coeff-Com: -0.362D-01 0.190D+00-0.311D+00-0.512D+00 0.285D+00 0.133D+01
 Coeff-En:   0.000D+00 0.000D+00 0.000D+00 0.000D+00 0.000D+00 0.000D+00
 Coeff-En:   0.000D+00 0.000D+00 0.000D+00 0.000D+00 0.000D+00 0.100D+01
 Coeff:     -0.496D-02 0.179D-02 0.818D-03-0.909D-03 0.596D-02 0.505D-01
 Coeff:     -0.361D-01 0.189D+00-0.310D+00-0.510D+00 0.284D+00 0.133D+01
 Gap=     0.039 Goal=   None    Shift=    0.000
 RMSDP=5.08D-04 MaxDP=5.93D-03 DE=-6.60D-04 OVMax= 3.54D-02

 Cycle  13  Pass 1  IDiag  1:
 E= -79.3506001140439     Delta-E=       -0.000042933695 Rises=F Damp=F
 DIIS: error= 6.00D-04 at cycle  13 NSaved=  13.
 NSaved=13 IEnMin=13 EnMin= -79.3506001140439     IErMin=12 ErrMin= 3.69D-04
 ErrMax= 6.00D-04 EMaxC= 1.00D-01 BMatC= 1.74D-05 BMatP= 7.69D-06
 IDIUse=3 WtCom= 9.96D-01 WtEn= 3.69D-03
 Coeff-Com: -0.436D-03 0.971D-03 0.595D-03-0.650D-03 0.519D-02-0.698D-02
 Coeff-Com:  0.947D-01-0.274D+00 0.218D+00 0.547D-01-0.205D+00 0.264D-02
 Coeff-Com:  0.111D+01
 Coeff-En:   0.000D+00 0.000D+00 0.000D+00 0.000D+00 0.000D+00 0.000D+00
 Coeff-En:   0.000D+00 0.000D+00 0.000D+00 0.000D+00 0.000D+00 0.000D+00
 Coeff-En:   0.100D+01
 Coeff:     -0.434D-03 0.967D-03 0.593D-03-0.648D-03 0.517D-02-0.695D-02
 Coeff:      0.943D-01-0.273D+00 0.218D+00 0.545D-01-0.204D+00 0.263D-02
 Coeff:      0.111D+01
 Gap=     0.038 Goal=   None    Shift=    0.000
 RMSDP=1.34D-04 MaxDP=1.86D-03 DE=-4.29D-05 OVMax= 7.27D-03

 Cycle  14  Pass 1  IDiag  1:
 E= -79.3506280988508     Delta-E=       -0.000027984807 Rises=F Damp=F
 DIIS: error= 2.36D-04 at cycle  14 NSaved=  14.
 NSaved=14 IEnMin=14 EnMin= -79.3506280988508     IErMin=14 ErrMin= 2.36D-04
 ErrMax= 2.36D-04 EMaxC= 1.00D-01 BMatC= 3.16D-06 BMatP= 7.69D-06
 IDIUse=3 WtCom= 9.98D-01 WtEn= 2.36D-03
 Coeff-Com:  0.172D-04-0.186D-03-0.523D-03-0.284D-04-0.489D-03 0.103D-01
 Coeff-Com: -0.168D-01 0.211D-01-0.100D-01 0.394D-01-0.789D-01-0.251D+00
 Coeff-Com:  0.418D+00 0.870D+00
 Coeff-En:   0.000D+00 0.000D+00 0.000D+00 0.000D+00 0.000D+00 0.000D+00
 Coeff-En:   0.000D+00 0.000D+00 0.000D+00 0.000D+00 0.000D+00 0.000D+00
 Coeff-En:   0.200D+00 0.800D+00
 Coeff:      0.172D-04-0.186D-03-0.522D-03-0.283D-04-0.487D-03 0.103D-01
 Coeff:     -0.168D-01 0.211D-01-0.100D-01 0.393D-01-0.787D-01-0.250D+00
 Coeff:      0.417D+00 0.869D+00
 Gap=     0.038 Goal=   None    Shift=    0.000
 RMSDP=1.45D-04 MaxDP=1.70D-03 DE=-2.80D-05 OVMax= 1.01D-02

 Cycle  15  Pass 1  IDiag  1:
 E= -79.3506343933844     Delta-E=       -0.000006294534 Rises=F Damp=F
 DIIS: error= 1.25D-04 at cycle  15 NSaved=  15.
 NSaved=15 IEnMin=15 EnMin= -79.3506343933844     IErMin=15 ErrMin= 1.25D-04
 ErrMax= 1.25D-04 EMaxC= 1.00D-01 BMatC= 6.27D-07 BMatP= 3.16D-06
 IDIUse=3 WtCom= 9.99D-01 WtEn= 1.25D-03
 Coeff-Com: -0.124D-03 0.849D-06-0.183D-03-0.200D-04 0.790D-03-0.118D-03
 Coeff-Com: -0.279D-03 0.360D-01-0.271D-01 0.319D-01-0.284D-01-0.142D+00
 Coeff-Com:  0.163D+00 0.354D+00 0.613D+00
 Coeff-En:   0.000D+00 0.000D+00 0.000D+00 0.000D+00 0.000D+00 0.000D+00
 Coeff-En:   0.000D+00 0.000D+00 0.000D+00 0.000D+00 0.000D+00 0.000D+00
 Coeff-En:   0.000D+00 0.000D+00 0.100D+01
 Coeff:     -0.124D-03 0.848D-06-0.183D-03-0.200D-04 0.789D-03-0.118D-03
 Coeff:     -0.279D-03 0.360D-01-0.270D-01 0.319D-01-0.284D-01-0.142D+00
 Coeff:      0.163D+00 0.353D+00 0.613D+00
 Gap=     0.038 Goal=   None    Shift=    0.000
 RMSDP=2.64D-05 MaxDP=6.21D-04 DE=-6.29D-06 OVMax= 1.58D-03

 Cycle  16  Pass 1  IDiag  1:
 E= -79.3506353140386     Delta-E=       -0.000000920654 Rises=F Damp=F
 DIIS: error= 5.83D-05 at cycle  16 NSaved=  16.
 NSaved=16 IEnMin=16 EnMin= -79.3506353140386     IErMin=16 ErrMin= 5.83D-05
 ErrMax= 5.83D-05 EMaxC= 1.00D-01 BMatC= 1.48D-07 BMatP= 6.27D-07
 IDIUse=1 WtCom= 1.00D+00 WtEn= 0.00D+00
 Coeff-Com: -0.303D-04 0.316D-05 0.978D-05 0.392D-06-0.197D-03 0.104D-02
 Coeff-Com: -0.248D-02 0.714D-02-0.787D-02 0.577D-02 0.568D-03-0.232D-01
 Coeff-Com: -0.713D-02 0.623D-01 0.218D+00 0.746D+00
 Coeff:     -0.303D-04 0.316D-05 0.978D-05 0.392D-06-0.197D-03 0.104D-02
 Coeff:     -0.248D-02 0.714D-02-0.787D-02 0.577D-02 0.568D-03-0.232D-01
 Coeff:     -0.713D-02 0.623D-01 0.218D+00 0.746D+00
 Gap=     0.038 Goal=   None    Shift=    0.000
 RMSDP=1.12D-05 MaxDP=2.15D-04 DE=-9.21D-07 OVMax= 6.43D-04

 Cycle  17  Pass 1  IDiag  1:
 E= -79.3506355671722     Delta-E=       -0.000000253134 Rises=F Damp=F
 DIIS: error= 1.24D-05 at cycle  17 NSaved=  17.
 NSaved=17 IEnMin=17 EnMin= -79.3506355671722     IErMin=17 ErrMin= 1.24D-05
 ErrMax= 1.24D-05 EMaxC= 1.00D-01 BMatC= 6.40D-09 BMatP= 1.48D-07
 IDIUse=1 WtCom= 1.00D+00 WtEn= 0.00D+00
 Coeff-Com: -0.909D-05 0.764D-06 0.552D-05-0.151D-05-0.130D-04 0.483D-04
 Coeff-Com: -0.253D-03 0.901D-03-0.111D-02-0.669D-03 0.144D-02 0.106D-02
 Coeff-Com: -0.201D-02-0.731D-02-0.487D-01 0.727D-01 0.984D+00
 Coeff:     -0.909D-05 0.764D-06 0.552D-05-0.151D-05-0.130D-04 0.483D-04
 Coeff:     -0.253D-03 0.901D-03-0.111D-02-0.669D-03 0.144D-02 0.106D-02
 Coeff:     -0.201D-02-0.731D-02-0.487D-01 0.727D-01 0.984D+00
 Gap=     0.038 Goal=   None    Shift=    0.000
 RMSDP=1.44D-06 MaxDP=3.17D-05 DE=-2.53D-07 OVMax= 8.19D-05

 Cycle  18  Pass 1  IDiag  1:
 E= -79.3506355784384     Delta-E=       -0.000000011266 Rises=F Damp=F
 DIIS: error= 6.47D-07 at cycle  18 NSaved=  18.
 NSaved=18 IEnMin=18 EnMin= -79.3506355784384     IErMin=18 ErrMin= 6.47D-07
 ErrMax= 6.47D-07 EMaxC= 1.00D-01 BMatC= 1.69D-11 BMatP= 6.40D-09
 IDIUse=1 WtCom= 1.00D+00 WtEn= 0.00D+00
 Coeff-Com: -0.756D-06-0.115D-06-0.121D-05-0.317D-06 0.270D-05 0.206D-04
 Coeff-Com: -0.843D-04 0.214D-03-0.203D-03-0.168D-03 0.181D-03 0.522D-03
 Coeff-Com:  0.251D-03-0.322D-02-0.209D-01-0.192D-01 0.164D+00 0.879D+00
 Coeff:     -0.756D-06-0.115D-06-0.121D-05-0.317D-06 0.270D-05 0.206D-04
 Coeff:     -0.843D-04 0.214D-03-0.203D-03-0.168D-03 0.181D-03 0.522D-03
 Coeff:      0.251D-03-0.322D-02-0.209D-01-0.192D-01 0.164D+00 0.879D+00
 Gap=     0.038 Goal=   None    Shift=    0.000
 RMSDP=2.11D-07 MaxDP=2.27D-06 DE=-1.13D-08 OVMax= 1.45D-05

 Cycle  19  Pass 1  IDiag  1:
 E= -79.3506355784689     Delta-E=       -0.000000000030 Rises=F Damp=F
 DIIS: error= 1.01D-07 at cycle  19 NSaved=  19.
 NSaved=19 IEnMin=19 EnMin= -79.3506355784689     IErMin=19 ErrMin= 1.01D-07
 ErrMax= 1.01D-07 EMaxC= 1.00D-01 BMatC= 7.46D-13 BMatP= 1.69D-11
 IDIUse=1 WtCom= 1.00D+00 WtEn= 0.00D+00
 Coeff-Com: -0.135D-07 0.826D-07-0.455D-06-0.374D-07 0.153D-06 0.105D-04
 Coeff-Com: -0.229D-04 0.188D-04-0.142D-04 0.160D-05 0.672D-05 0.107D-03
 Coeff-Com:  0.260D-03-0.400D-04-0.216D-02-0.807D-02 0.360D-03 0.724D-01
 Coeff-Com:  0.937D+00
 Coeff:     -0.135D-07 0.826D-07-0.455D-06-0.374D-07 0.153D-06 0.105D-04
 Coeff:     -0.229D-04 0.188D-04-0.142D-04 0.160D-05 0.672D-05 0.107D-03
 Coeff:      0.260D-03-0.400D-04-0.216D-02-0.807D-02 0.360D-03 0.724D-01
 Coeff:      0.937D+00
 Gap=     0.038 Goal=   None    Shift=    0.000
 RMSDP=8.80D-08 MaxDP=9.44D-07 DE=-3.05D-11 OVMax= 6.18D-06

 Cycle  20  Pass 1  IDiag  1:
 E= -79.3506355784713     Delta-E=       -0.000000000002 Rises=F Damp=F
 DIIS: error= 3.34D-08 at cycle  20 NSaved=  20.
 NSaved=20 IEnMin=20 EnMin= -79.3506355784713     IErMin=20 ErrMin= 3.34D-08
 ErrMax= 3.34D-08 EMaxC= 1.00D-01 BMatC= 5.20D-14 BMatP= 7.46D-13
 IDIUse=1 WtCom= 1.00D+00 WtEn= 0.00D+00
 Coeff-Com:  0.161D-07-0.150D-07 0.266D-07 0.720D-08 0.113D-06-0.235D-06
 Coeff-Com:  0.112D-05-0.147D-04 0.182D-04 0.462D-05-0.921D-05-0.145D-04
 Coeff-Com:  0.670D-04 0.501D-04 0.609D-03-0.363D-03-0.178D-02-0.319D-01
 Coeff-Com: -0.216D-01 0.105D+01
 Coeff:      0.161D-07-0.150D-07 0.266D-07 0.720D-08 0.113D-06-0.235D-06
 Coeff:      0.112D-05-0.147D-04 0.182D-04 0.462D-05-0.921D-05-0.145D-04
 Coeff:      0.670D-04 0.501D-04 0.609D-03-0.363D-03-0.178D-02-0.319D-01
 Coeff:     -0.216D-01 0.105D+01
 Gap=     0.038 Goal=   None    Shift=    0.000
 RMSDP=1.03D-08 MaxDP=1.29D-07 DE=-2.39D-12 OVMax= 6.87D-07

 Cycle  21  Pass 1  IDiag  1:
 E= -79.3506355784710     Delta-E=        0.000000000000 Rises=F Damp=F
 DIIS: error= 8.53D-09 at cycle  21 NSaved=  20.
 NSaved=20 IEnMin=19 EnMin= -79.3506355784713     IErMin=20 ErrMin= 8.53D-09
 ErrMax= 8.53D-09 EMaxC= 1.00D-01 BMatC= 3.15D-15 BMatP= 5.20D-14
 IDIUse=1 WtCom= 1.00D+00 WtEn= 0.00D+00
 Large coefficients: NSaved= 20 BigCof=    0.00 CofMax=   10.00 Det=-4.09D-16
 Inversion failed.  Reducing to 19 matrices.
 Large coefficients: NSaved= 19 BigCof=    0.00 CofMax=   10.00 Det=-4.09D-16
 Inversion failed.  Reducing to 18 matrices.
 Large coefficients: NSaved= 18 BigCof=    0.00 CofMax=   10.00 Det=-4.11D-16
 Inversion failed.  Reducing to 17 matrices.
 Large coefficients: NSaved= 17 BigCof=    0.00 CofMax=   10.00 Det=-4.15D-16
 Inversion failed.  Reducing to 16 matrices.
 Large coefficients: NSaved= 16 BigCof=    0.00 CofMax=   10.00 Det=-4.18D-16
 Inversion failed.  Reducing to 15 matrices.
 Coeff-Com: -0.356D-07-0.266D-05 0.317D-05 0.322D-06-0.139D-05-0.935D-05
 Coeff-Com:  0.620D-05-0.257D-04-0.566D-04 0.896D-04 0.193D-02 0.196D-02
 Coeff-Com: -0.427D-01 0.589D-01 0.980D+00
 Coeff:     -0.356D-07-0.266D-05 0.317D-05 0.322D-06-0.139D-05-0.935D-05
 Coeff:      0.620D-05-0.257D-04-0.566D-04 0.896D-04 0.193D-02 0.196D-02
 Coeff:     -0.427D-01 0.589D-01 0.980D+00
 Gap=     0.038 Goal=   None    Shift=    0.000
 RMSDP=4.27D-09 MaxDP=5.63D-08 DE= 2.27D-13 OVMax= 2.65D-07

 SCF Done:  E(RB3LYP) =  -79.3506355785     A.U. after   21 cycles
             Convg  =    0.4272D-08             -V/T =  2.0114
 KE= 7.845250503431D+01 PE=-2.428475710642D+02 EE= 5.481296635445D+01
 Leave Link  502 at Wed May 26 19:08:44 2021, MaxMem=   13107200 cpu:      10.8
 (Enter /programs/64bit/g09/g09-gfortran/bin/l601.exe)
 Copying SCF densities to generalized density rwf, IOpCl= 0 IROHF=0.

 **********************************************************************

            Population analysis using the SCF density.

 **********************************************************************

 Alpha  occ. eigenvalues --  -10.27767 -10.22273  -0.75391  -0.72209  -0.45442
 Alpha  occ. eigenvalues --   -0.34610  -0.33361  -0.28232  -0.27247
 Alpha virt. eigenvalues --   -0.23406  -0.01106   0.01358   0.05304   0.06320
 Alpha virt. eigenvalues --    0.07564   0.08909   0.09339   0.11176   0.12837
 Alpha virt. eigenvalues --    0.14876   0.16585   0.19995   0.21981   0.22945
 Alpha virt. eigenvalues --    0.58526   0.61237   0.63552   0.68084   0.69442
 Alpha virt. eigenvalues --    0.79120   0.82124   0.85315   0.87322   0.89079
 Alpha virt. eigenvalues --    0.93499   0.97976   1.03686   1.06127   1.26187
 Alpha virt. eigenvalues --    1.33503   1.34288   1.44272   1.70443   1.74453
 Alpha virt. eigenvalues --    1.81710   1.84957   1.86107   1.91089   2.13477
 Alpha virt. eigenvalues --    2.16107   2.31896   2.33034   2.36250   2.44467
 Alpha virt. eigenvalues --    2.46892   2.56688   2.60779   2.70200   2.72262
 Alpha virt. eigenvalues --    2.99281   2.99772   3.01657   3.27203   3.30542
 Alpha virt. eigenvalues --    3.31983   3.32627   4.24418   4.32988
          Condensed to atoms (all electrons):
              1          2          3          4          5          6
     1  C    5.533181   0.038114   0.337838   0.229640   0.244696  -0.010928
     2  C    0.038114   5.319404   0.000036   0.001584   0.000427   0.372784
     3  H    0.337838   0.000036   0.695050  -0.074198  -0.075693   0.000025
     4  H    0.229640   0.001584  -0.074198   0.863336  -0.076972   0.000064
     5  H    0.244696   0.000427  -0.075693  -0.076972   0.844078   0.000116
     6  H   -0.010928   0.372784   0.000025   0.000064   0.000116   0.564748
     7  H   -0.011422   0.372850   0.000024   0.000051   0.000056  -0.039470
     8  H    0.006264   0.211717  -0.000002  -0.000002  -0.000003  -0.062406
              7          8
     1  C   -0.011422   0.006264
     2  C    0.372850   0.211717
     3  H    0.000024  -0.000002
     4  H    0.000051  -0.000002
     5  H    0.000056  -0.000003
     6  H   -0.039470  -0.062406
     7  H    0.564274  -0.062368
     8  H   -0.062368   0.810282
 Mulliken atomic charges:
              1
     1  C   -0.367383
     2  C   -0.316917
     3  H    0.116919
     4  H    0.056497
     5  H    0.063296
     6  H    0.175067
     7  H    0.176004
     8  H    0.096517
 Sum of Mulliken atomic charges =  -0.00000
 Mulliken charges with hydrogens summed into heavy atoms:
              1
     1  C   -0.130671
     2  C    0.130671
 Sum of Mulliken charges with hydrogens summed into heavy atoms =  -0.00000
 Electronic spatial extent (au):  <R**2>=            474.1514
 Charge=             -0.0000 electrons
 Dipole moment (field-independent basis, Debye):
    X=             -1.1473    Y=             -1.0524    Z=              2.6500  Tot=              3.0735
 Quadrupole moment (field-independent basis, Debye-Ang):
   XX=            -16.6691   YY=            -18.3215   ZZ=              1.0029
   XY=              0.3850   XZ=             -0.4949   YZ=             -2.0083
 Traceless Quadrupole moment (field-independent basis, Debye-Ang):
   XX=             -5.3399   YY=             -6.9923   ZZ=             12.3321
   XY=              0.3850   XZ=             -0.4949   YZ=             -2.0083
 Octapole moment (field-independent basis, Debye-Ang**2):
  XXX=              3.5529  YYY=              3.5272  ZZZ=             -7.7865  XYY=              1.8614
  XXY=              0.4582  XXZ=            -25.1159  XZZ=             -6.0728  YZZ=            -11.1393
  YYZ=            -26.7466  XYZ=             -2.0413
 Hexadecapole moment (field-independent basis, Debye-Ang**3):
 XXXX=            -35.8560 YYYY=            -35.1929 ZZZZ=           -339.2798 XXXY=              0.4175
 XXXZ=             -0.5891 YYYX=             -0.2353 YYYZ=              2.6652 ZZZX=            -29.0608
 ZZZY=            -49.7385 XXYY=            -11.8214 XXZZ=           -103.0361 YYZZ=           -110.8277
 XXYZ=              1.0755 YYXZ=              2.2830 ZZXY=             -6.7380
 N-N= 3.023146409699D+01 E-N=-2.428475711003D+02  KE= 7.845250503431D+01
 No NMR shielding tensors so no spin-rotation constants.
 Leave Link  601 at Wed May 26 19:08:44 2021, MaxMem=   13107200 cpu:       0.0
 (Enter /programs/64bit/g09/g09-gfortran/bin/l701.exe)
 Compute integral first derivatives.
 ... and contract with generalized density number  0.
 Leave Link  701 at Wed May 26 19:08:44 2021, MaxMem=   13107200 cpu:       0.1
 (Enter /programs/64bit/g09/g09-gfortran/bin/l702.exe)
 L702 exits ... SP integral derivatives will be done elsewhere.
 Leave Link  702 at Wed May 26 19:08:44 2021, MaxMem=   13107200 cpu:       0.0
 (Enter /programs/64bit/g09/g09-gfortran/bin/l703.exe)
 Compute integral first derivatives, UseDBF=F ICtDFT=           0.
 Integral derivatives from FoFDir, PRISM(SPDF).
 Calling FoFJK, ICntrl=      2127 FMM=F ISym2X=0 I1Cent= 0 IOpClX= 0 NMat=1 NMatS=1 NMatT=0.
 FoFCou: FMM=F IPFlag=           0 FMFlag=      100000 FMFlg1=         800
         NFxFlg=           0 DoJE=F BraDBF=F KetDBF=F FulRan=T
         Omega=  0.000000  0.000000  1.000000  0.000000  0.000000 ICntrl=    2127 IOpCl=  0
         NMat0=    1 NMatS0=    1 NMatT0=    0 NMatD0=    1 NMtDS0=    0 NMtDT0=    0
         I1Cent=           0 NGrid=           0.
 Symmetry not used in FoFCou.
 Leave Link  703 at Wed May 26 19:08:46 2021, MaxMem=   13107200 cpu:       1.0
 (Enter /programs/64bit/g09/g09-gfortran/bin/l716.exe)
 Dipole        =-4.51372109D-01-4.14048153D-01 1.04259730D+00
 -------------------------------------------------------------------
 Center     Atomic                   Forces (Hartrees/Bohr)
 Number     Number              X              Y              Z
 -------------------------------------------------------------------
      1        6          -0.100206413   -0.053610987   -0.102579421
      2        6          -0.030704752   -0.054826677    0.089846638
      3        1           0.077885659    0.042660886    0.001323409
      4        1           0.043304255   -0.047758231    0.056938220
      5        1          -0.019601491    0.062223058    0.059290929
      6        1          -0.017826427    0.011702216   -0.051945871
      7        1           0.018631713   -0.009778571   -0.051828227
      8        1           0.028517457    0.049388305   -0.001045676
 -------------------------------------------------------------------
 Cartesian Forces:  Max     0.102579421 RMS     0.053249421
 -----------------------------------------------------------------------------------------------
                       Internal Coordinate Forces (Hartree/Bohr or radian)
  Cent   Atom   N1       Length/X         N2         Alpha/Y        N3         Beta/Z          J
 -----------------------------------------------------------------------------------------------
      1  C 
      2  C        1  -0.014973(     1)
      3  H        1   0.000057(     2)      2  -0.166892(     8)
      4  H        1  -0.000935(     3)      2  -0.133510(     9)      3  -0.127817(    14)     0
      5  H        1   0.000276(     4)      2  -0.137984(    10)      3   0.128541(    15)     0
      6  H        2  -0.000049(     5)      1  -0.114859(    11)      3  -0.000907(    16)     0
      7  H        2  -0.000051(     6)      1  -0.114575(    12)      6   0.022235(    17)     0
      8  H        2  -0.000038(     7)      1  -0.126207(    13)      6  -0.000000(    18)     0
 -----------------------------------------------------------------------------------------------
 Internal  Forces:  Max     0.166891665 RMS     0.088363520
 Force constants in Cartesian coordinates: 
                1             2             3             4             5 
      1  0.854926D+00
      2 -0.720631D+00  0.959832D+01
      3  0.134343D+00  0.784586D-01  0.497623D+00
      4 -0.157806D+01  0.320168D+01  0.157469D-01  0.659106D+01
      5  0.102670D+01 -0.409897D+01  0.900656D-02 -0.416950D+01  0.364914D+01
      6 -0.546744D-02 -0.947394D-02 -0.112090D-01 -0.713520D-01 -0.123697D+00
      7 -0.928751D-01 -0.517679D-03 -0.446570D-01  0.139736D-01 -0.137204D-02
      8  0.457523D+00 -0.668852D+01 -0.270917D-01 -0.177492D+01  0.261768D+01
      9  0.370749D-02 -0.917340D-05 -0.302890D+00  0.247616D-03 -0.243129D-04
     10 -0.901982D-01 -0.107885D+00 -0.418982D-01 -0.245192D-01  0.163789D-01
     11 -0.826770D-01 -0.173088D+00 -0.498080D-01  0.163685D-01 -0.561134D-02
     12 -0.471176D-01 -0.771383D-01 -0.916000D-01 -0.528080D-02 -0.914497D-02
     13 -0.245204D+00  0.472793D-02 -0.635346D-01  0.425953D-02 -0.326319D-03
     14 -0.295192D-01 -0.334860D-01 -0.105655D-01  0.324385D-01 -0.153272D-01
     15 -0.909328D-01 -0.131117D-02 -0.919240D-01 -0.107137D-01  0.162726D-03
     16  0.386279D-02 -0.119003D-05  0.000000D+00 -0.290996D+00  0.677985D-02
     17 -0.535505D-03 -0.362894D-01  0.000000D+00 -0.213578D-01 -0.532867D-01
     18  0.112232D-01 -0.332270D-05  0.000000D+00  0.111856D+00  0.196976D-01
     19  0.411879D-02  0.344175D-01  0.000000D+00 -0.114055D+00  0.721728D-01
     20  0.146232D-03  0.237345D-01  0.000000D+00  0.109066D+00 -0.245624D+00
     21 -0.561574D-02  0.971976D-02  0.000000D+00 -0.388992D-01  0.106779D+00
     22  0.114343D+01 -0.241179D+01  0.000000D+00 -0.460166D+01  0.304917D+01
     23 -0.651009D+00  0.140830D+01  0.000000D+00  0.260623D+01 -0.184799D+01
     24 -0.140006D-03 -0.242498D-03  0.000000D+00 -0.160457D-02 -0.277925D-02
                6             7             8             9            10 
      6  0.514015D+00
      7  0.000000D+00  0.860613D-01
      8  0.000000D+00  0.105303D-01  0.482709D+01
      9  0.000000D+00 -0.382823D-02  0.186599D-03  0.302031D+00
     10  0.000000D+00  0.394626D-02 -0.954014D-02  0.699287D-04  0.913353D-01
     11  0.000000D+00 -0.907952D-02 -0.599591D-02 -0.160891D-03  0.864523D-01
     12  0.000000D+00  0.161943D-01  0.273830D-01  0.286967D-03  0.365670D-01
     13  0.000000D+00 -0.111061D-01  0.333794D-03 -0.196803D-03 -0.134191D-02
     14  0.000000D+00  0.438978D-03  0.959898D-02  0.777880D-05  0.265897D-01
     15  0.000000D+00  0.322910D-01 -0.477963D-03  0.572204D-03  0.526137D-02
     16  0.733042D-01  0.000000D+00  0.000000D+00  0.000000D+00  0.000000D+00
     17  0.292918D-01  0.000000D+00  0.306397D-01  0.000000D+00  0.483726D-03
     18 -0.116512D+00  0.000000D+00  0.000000D+00  0.000000D+00  0.000000D+00
     19 -0.113120D-01  0.000000D+00 -0.265397D-01  0.000000D+00 -0.418999D-03
     20  0.781860D-01  0.000000D+00 -0.153233D-01  0.000000D+00 -0.241918D-03
     21 -0.116566D+00  0.000000D+00  0.000000D+00  0.000000D+00  0.000000D+00
     22  0.148272D-01  0.000000D+00  0.134262D+01  0.000000D+00  0.211967D-01
     23  0.256933D-01  0.000000D+00 -0.775162D+00  0.000000D+00 -0.122379D-01
     24 -0.269727D+00  0.000000D+00  0.000000D+00  0.000000D+00  0.000000D+00
               11            12            13            14            15 
     11  0.195359D+00
     12  0.535630D-01  0.899853D-01
     13  0.926834D-03 -0.362823D-03  0.253816D+00
     14 -0.175871D-01  0.533727D-02 -0.590704D-02  0.429212D-01
     15 -0.359407D-02  0.132766D-02  0.640942D-01  0.522048D-02  0.900241D-01
     16  0.000000D+00  0.000000D+00  0.000000D+00  0.000000D+00  0.000000D+00
     17 -0.279166D-03  0.000000D+00 -0.987092D-05 -0.559699D-03  0.000000D+00
     18  0.000000D+00  0.000000D+00  0.000000D+00  0.000000D+00  0.000000D+00
     19  0.241810D-03  0.000000D+00  0.855009D-05  0.484805D-03  0.000000D+00
     20  0.139614D-03  0.000000D+00  0.493658D-05  0.279913D-03  0.000000D+00
     21  0.000000D+00  0.000000D+00  0.000000D+00  0.000000D+00  0.000000D+00
     22 -0.122329D-01  0.000000D+00 -0.432539D-03 -0.245258D-01  0.000000D+00
     23  0.706270D-02  0.000000D+00  0.249727D-03  0.141600D-01  0.000000D+00
     24  0.000000D+00  0.000000D+00  0.000000D+00  0.000000D+00  0.000000D+00
               16            17            18            19            20 
     16  0.303287D+00
     17 -0.493331D-02  0.402257D-01
     18 -0.761448D-01 -0.143325D-01  0.108259D+00
     19 -0.488679D-02  0.269524D-01 -0.141985D-01  0.110334D+00
     20 -0.173281D-02  0.967426D-02 -0.503465D-02 -0.116465D+00  0.233410D+00
     21  0.273933D-02 -0.148136D-01  0.795909D-02  0.256874D-01 -0.731661D-01
     22 -0.112669D-01 -0.599649D-03 -0.327357D-01  0.489885D-02  0.922231D-02
     23 -0.112568D-03  0.987529D-02 -0.327098D-03  0.873513D-02 -0.629073D-02
     24  0.101246D-03 -0.145792D-03  0.294168D-03 -0.176918D-03  0.147827D-04
               21            22            23            24 
     21  0.108313D+00
     22  0.160882D-01  0.344384D+01
     23 -0.285189D-01 -0.195185D+01  0.119004D+01
     24  0.294219D-03  0.182025D-02  0.315276D-02  0.269139D+00
 Force constants in internal coordinates: 
                1             2             3             4             5 
      1  0.112090D-01
      2  0.000000D+00  0.302098D+00
      3  0.000000D+00  0.000000D+00  0.267750D+00
      4  0.000000D+00  0.000000D+00  0.000000D+00  0.275980D+00
      5  0.000000D+00  0.000000D+00  0.000000D+00  0.000000D+00  0.329495D+00
      6  0.000000D+00  0.000000D+00  0.000000D+00  0.000000D+00  0.000000D+00
      7  0.000000D+00  0.000000D+00  0.000000D+00  0.000000D+00  0.000000D+00
      8  0.000000D+00  0.000000D+00  0.000000D+00  0.000000D+00  0.000000D+00
      9  0.000000D+00  0.000000D+00  0.000000D+00  0.000000D+00  0.000000D+00
     10  0.000000D+00  0.000000D+00  0.000000D+00  0.000000D+00  0.000000D+00
     11  0.000000D+00  0.000000D+00  0.000000D+00  0.000000D+00  0.000000D+00
     12  0.000000D+00  0.000000D+00  0.000000D+00  0.000000D+00  0.000000D+00
     13  0.000000D+00  0.000000D+00  0.000000D+00  0.000000D+00  0.000000D+00
     14  0.000000D+00  0.000000D+00  0.000000D+00  0.000000D+00  0.000000D+00
     15  0.000000D+00  0.000000D+00  0.000000D+00  0.000000D+00  0.000000D+00
     16  0.000000D+00  0.000000D+00  0.000000D+00  0.000000D+00  0.000000D+00
     17  0.000000D+00  0.000000D+00  0.000000D+00  0.000000D+00  0.000000D+00
     18  0.000000D+00  0.000000D+00  0.000000D+00  0.000000D+00  0.000000D+00
                6             7             8             9            10 
      6  0.329731D+00
      7  0.000000D+00  0.269203D+00
      8  0.000000D+00  0.000000D+00  0.394725D+00
      9  0.000000D+00  0.000000D+00  0.818275D-01  0.326350D+00
     10  0.000000D+00  0.000000D+00  0.160786D+00  0.727485D-02  0.328313D+00
     11  0.000000D+00  0.000000D+00  0.000000D+00  0.000000D+00  0.000000D+00
     12  0.000000D+00  0.000000D+00  0.000000D+00  0.000000D+00  0.000000D+00
     13  0.000000D+00  0.000000D+00  0.000000D+00  0.000000D+00  0.000000D+00
     14  0.000000D+00  0.000000D+00  0.355033D-01  0.240511D-01  0.307445D-01
     15  0.000000D+00  0.000000D+00 -0.108217D-02 -0.261134D-01 -0.306568D-01
     16  0.000000D+00  0.000000D+00  0.000000D+00  0.000000D+00  0.000000D+00
     17  0.000000D+00  0.000000D+00  0.000000D+00  0.000000D+00  0.000000D+00
     18  0.000000D+00  0.000000D+00  0.000000D+00  0.000000D+00  0.000000D+00
               11            12            13            14            15 
     11  0.358890D+00
     12  0.389289D-01  0.358890D+00
     13  0.815014D-01  0.814990D-01  0.308781D+00
     14  0.000000D+00  0.000000D+00  0.000000D+00  0.184179D+00
     15  0.000000D+00  0.000000D+00  0.000000D+00 -0.137532D+00  0.184664D+00
     16  0.345767D-03 -0.345817D-03  0.000000D+00  0.690000D-02  0.690000D-02
     17 -0.647810D-01 -0.626903D-01 -0.361149D-01  0.230000D-02  0.230000D-02
     18  0.243656D-02 -0.243658D-02  0.000000D+00  0.230000D-02  0.230000D-02
               16            17            18 
     16  0.995643D-01
     17  0.467130D-01  0.157311D+00
     18  0.613827D-02 -0.421753D-03  0.698179D-02
 Leave Link  716 at Wed May 26 19:08:46 2021, MaxMem=   13107200 cpu:       0.0
 (Enter /programs/64bit/g09/g09-gfortran/bin/l103.exe)

 GradGradGradGradGradGradGradGradGradGradGradGradGradGradGradGradGradGrad
 Berny optimization.
 Search for a local minimum.
 Step number   1 out of a maximum of    2
 All quantities printed in internal units (Hartrees-Bohrs-Radians)
 Second derivative matrix not updated -- first step.
 The second derivative matrix:
                          d1        a1        t1        d2        a2
           d1           0.01121
           a1          -0.00000   0.39473
           t1          -0.00000   0.03550   0.18418
           d2           0.00000  -0.00000  -0.00000   0.30210
           a2          -0.00000   0.08183   0.02405  -0.00000   0.32635
           t2           0.00000  -0.00108  -0.13753   0.00000  -0.02611
           d3          -0.00000   0.00000  -0.00000   0.00000  -0.00000
           d4           0.00000  -0.00000  -0.00000  -0.00000  -0.00000
           a3          -0.00000   0.16079   0.03074  -0.00000   0.00727
           d5          -0.00000   0.00000   0.00000   0.00000   0.00000
           a4          -0.00000  -0.00000  -0.00000  -0.00000  -0.00000
           t3          -0.00000   0.00000   0.00690  -0.00000   0.00000
           d6           0.00000  -0.00000   0.00000  -0.00000  -0.00000
           a5          -0.00000  -0.00000  -0.00000  -0.00000   0.00000
           t4           0.00000   0.00000   0.00230  -0.00000  -0.00000
           d7           0.00000   0.00000  -0.00000  -0.00000  -0.00000
           a6          -0.00000  -0.00000   0.00000   0.00000   0.00000
           t5           0.00000  -0.00000   0.00230   0.00000   0.00000
                          t2        d3        d4        a3        d5
           t2           0.18466
           d3          -0.00000   0.26775
           d4           0.00000   0.00000   0.27598
           a3          -0.03066   0.00000   0.00000   0.32831
           d5           0.00000  -0.00000  -0.00000   0.00000   0.32949
           a4          -0.00000   0.00000   0.00000  -0.00000  -0.00000
           t3           0.00690  -0.00000   0.00000  -0.00000  -0.00000
           d6           0.00000  -0.00000  -0.00000  -0.00000  -0.00000
           a5          -0.00000   0.00000   0.00000   0.00000  -0.00000
           t4           0.00230   0.00000  -0.00000   0.00000   0.00000
           d7           0.00000   0.00000   0.00000  -0.00000  -0.00000
           a6           0.00000  -0.00000   0.00000  -0.00000  -0.00000
           t5           0.00230  -0.00000   0.00000   0.00000  -0.00000
                          a4        t3        d6        a5        t4
           a4           0.35889
           t3           0.00035   0.09956
           d6           0.00000   0.00000   0.32973
           a5           0.03893  -0.00035   0.00000   0.35889
           t4          -0.06478   0.04671   0.00000  -0.06269   0.15731
           d7           0.00000  -0.00000   0.00000   0.00000  -0.00000
           a6           0.08150  -0.00000   0.00000   0.08150  -0.03611
           t5           0.00244   0.00614  -0.00000  -0.00244  -0.00042
                          d7        a6        t5
           d7           0.26920
           a6          -0.00000   0.30878
           t5           0.00000   0.00000   0.00698
     Eigenvalues --- 1000.000001000.000001000.000001000.000001000.00000
     Eigenvalues --- 1000.000001000.000001000.000001000.000001000.00000
     Eigenvalues --- 1000.000001000.000001000.000001000.000001000.00000
     Eigenvalues --- 1000.000001000.000001000.00000
 Angle between quadratic step and forces=  90.00 degrees.
 Linear search not attempted -- first point.
 Variable       Old X    -DE/DX   Delta X   Delta X   Delta X     New X
                                 (Linear)    (Quad)   (Total)
    d1        6.45319  -0.01497   0.00000   0.00000   0.00000   6.45319
    a1        3.12387  -0.16689   0.00000   0.00000   0.00000   3.12387
    t1        2.09422  -0.12782   0.00000   0.00000   0.00000   2.09422
    d2        2.14247   0.00006   0.00000   0.00000   0.00000   2.14247
    a2        1.91971  -0.13351   0.00000   0.00000   0.00000   1.91971
    t2       -3.12396   0.12854   0.00000   0.00000   0.00000  -3.12396
    d3        2.21597  -0.00094   0.00000   0.00000   0.00000   2.21597
    d4        2.19726   0.00028   0.00000   0.00000   0.00000   2.19726
    a3        1.90223  -0.13798   0.00000   0.00000   0.00000   1.90223
    d5        2.09140  -0.00005   0.00000   0.00000   0.00000   2.09140
    a4        1.90228  -0.11486   0.00000   0.00000   0.00000   1.90228
    t3        3.14159  -0.00091   0.00000   0.00000   0.00000   3.14159
    d6        2.09099  -0.00005   0.00000   0.00000   0.00000   2.09099
    a5        1.90227  -0.11457   0.00000   0.00000   0.00000   1.90227
    t4        2.09441   0.02224   0.00000   0.00000   0.00000   2.09441
    d7        2.21261  -0.00004   0.00000   0.00000   0.00000   2.21261
    a6        3.12393  -0.12621   0.00000   0.00000   0.00000   3.12393
    t5       -2.09440  -0.00000   0.00000   0.00000   0.00000  -2.09440
         Item               Value     Threshold  Converged?
 Maximum Force            0.000000     0.000450     YES
 RMS     Force            0.000000     0.000300     YES
 Maximum Displacement     0.000000     0.001800     YES
 RMS     Displacement     0.000000     0.001200     YES
 Predicted change in Energy=-0.000000D+00
 Optimization completed.
    -- Stationary point found.
                       ----------------------------
                       !   Optimized Parameters   !
                       ! (Angstroms and Degrees)  !
 ----------------------                            ----------------------
 !      Name          Value   Derivative information (Atomic Units)     !
 ------------------------------------------------------------------------
 !       d1          3.4149   -DE/DX =   -0.015                         !
 !       a1        178.9848   -DE/DX =   -0.1669                        !
 !       t1        119.9899   -DE/DX =   -0.1278                        !
 !       d2          1.1337   -DE/DX =    0.0001                        !
 !       a2        109.991    -DE/DX =   -0.1335                        !
 !       t2       -178.9896   -DE/DX =    0.1285                        !
 !       d3          1.1726   -DE/DX =   -0.0009                        !
 !       d4          1.1627   -DE/DX =    0.0003                        !
 !       a3        108.9896   -DE/DX =   -0.138                         !
 !       d5          1.1067   -DE/DX =    0.0                           !
 !       a4        108.9924   -DE/DX =   -0.1149                        !
 !       t3        179.9999   -DE/DX =   -0.0009                        !
 !       d6          1.1065   -DE/DX =   -0.0001                        !
 !       a5        108.9923   -DE/DX =   -0.1146                        !
 !       t4        120.001    -DE/DX =    0.0222                        !
 !       d7          1.1709   -DE/DX =    0.0                           !
 !       a6        178.9879   -DE/DX =   -0.1262                        !
 !       t5       -120.0      -DE/DX =    0.0                           !
 ------------------------------------------------------------------------
 GradGradGradGradGradGradGradGradGradGradGradGradGradGradGradGradGradGrad

 Leave Link  103 at Wed May 26 19:08:46 2021, MaxMem=   13107200 cpu:       0.0
 (Enter /programs/64bit/g09/g09-gfortran/bin/l9999.exe)
 1\1\GINC-MOLMOD\Force\RB3LYP\6-31+G(d,p)\C2H6\OSPITE\26-May-2021\1\\#p
  b3lyp/6-31+g(d,p) force nosym\\c2h6 molecule\\0,1\C\C,1,d1\H,1,d2,2,a
 1\H,1,d3,2,a2,3,t1,0\H,1,d4,2,a3,3,t2,0\H,2,d5,1,a4,3,t3,0\H,2,d6,1,a5
 ,6,t4,0\H,2,d7,1,a6,6,t5,0\\d1=3.41487845\a1=178.9848104\t1=119.989884
 07\d2=1.13374585\a2=109.9910325\t2=-178.98962925\d3=1.1726431\d4=1.162
 73884\a3=108.98964496\d5=1.1067228\a4=108.99240084\t3=179.9999267\d6=1
 .10650275\a5=108.99231357\t4=120.00099484\d7=1.17086465\a6=178.9878856
 7\t5=-119.99999825\\Version=EM64L-G09RevA.02\HF=-79.3506356\RMSD=4.272
 e-09\RMSF=5.325e-02\Dipole=-0.4513721,-0.4140482,1.0425973\Quadrupole=
 -3.9700667,-5.1985716,9.1686383,0.2862435,-0.3679615,-1.4931154\PG=C01
  [X(C2H6)]\\@


 POCKETA-POCKETA
 BARON VON RICHTOFEN
 SLAUGHTERED THE ALLIES WITH
 HARDLY A CARE.
 KILLED EIGHTY-ONE WITH HIS
 BLOOD-COLORED TRIPLANE, THEN
 UN-AEROBATICALLY
 PLUNGED FROM THE AIR.
   -- TONY HOFFMAN
 Job cpu time:  0 days  0 hours  0 minutes 12.9 seconds.
 File lengths (MBytes):  RWF=      5 Int=      0 D2E=      0 Chk=      1 Scr=      1
 Normal termination of Gaussian 09 at Wed May 26 19:08:46 2021.
