 Entering Gaussian System, Link 0=g09
 Input=c2h6_032.com
 Output=c2h6_032.log
 Initial command:
 /programs/64bit/g09/g09-gfortran/bin/l1.exe /data/scratch/Gau-6654.inp -scrdir=/data/scratch/
 Entering Link 1 = /programs/64bit/g09/g09-gfortran/bin/l1.exe PID=      6655.
  
 Copyright (c) 1988,1990,1992,1993,1995,1998,2003,2009, Gaussian, Inc.
                  All Rights Reserved.
  
 This is part of the Gaussian(R) 09 program.  It is based on
 the Gaussian(R) 03 system (copyright 2003, Gaussian, Inc.),
 the Gaussian(R) 98 system (copyright 1998, Gaussian, Inc.),
 the Gaussian(R) 94 system (copyright 1995, Gaussian, Inc.),
 the Gaussian 92(TM) system (copyright 1992, Gaussian, Inc.),
 the Gaussian 90(TM) system (copyright 1990, Gaussian, Inc.),
 the Gaussian 88(TM) system (copyright 1988, Gaussian, Inc.),
 the Gaussian 86(TM) system (copyright 1986, Carnegie Mellon
 University), and the Gaussian 82(TM) system (copyright 1983,
 Carnegie Mellon University). Gaussian is a federally registered
 trademark of Gaussian, Inc.
  
 This software contains proprietary and confidential information,
 including trade secrets, belonging to Gaussian, Inc.
  
 This software is provided under written license and may be
 used, copied, transmitted, or stored only in accord with that
 written license.
  
 The following legend is applicable only to US Government
 contracts under FAR:
  
                    RESTRICTED RIGHTS LEGEND
  
 Use, reproduction and disclosure by the US Government is
 subject to restrictions as set forth in subparagraphs (a)
 and (c) of the Commercial Computer Software - Restricted
 Rights clause in FAR 52.227-19.
  
 Gaussian, Inc.
 340 Quinnipiac St., Bldg. 40, Wallingford CT 06492
  
  
 ---------------------------------------------------------------
 Warning -- This program may not be used in any manner that
 competes with the business of Gaussian, Inc. or will provide
 assistance to any competitor of Gaussian, Inc.  The licensee
 of this program is prohibited from giving any competitor of
 Gaussian, Inc. access to this program.  By using this program,
 the user acknowledges that Gaussian, Inc. is engaged in the
 business of creating and licensing software in the field of
 computational chemistry and represents and warrants to the
 licensee that it is not a competitor of Gaussian, Inc. and that
 it will not use this program in any manner prohibited above.
 ---------------------------------------------------------------
  

 Cite this work as:
 Gaussian 09, Revision A.02,
 M. J. Frisch, G. W. Trucks, H. B. Schlegel, G. E. Scuseria, 
 M. A. Robb, J. R. Cheeseman, G. Scalmani, V. Barone, B. Mennucci, 
 G. A. Petersson, H. Nakatsuji, M. Caricato, X. Li, H. P. Hratchian, 
 A. F. Izmaylov, J. Bloino, G. Zheng, J. L. Sonnenberg, M. Hada, 
 M. Ehara, K. Toyota, R. Fukuda, J. Hasegawa, M. Ishida, T. Nakajima, 
 Y. Honda, O. Kitao, H. Nakai, T. Vreven, J. A. Montgomery, Jr., 
 J. E. Peralta, F. Ogliaro, M. Bearpark, J. J. Heyd, E. Brothers, 
 K. N. Kudin, V. N. Staroverov, R. Kobayashi, J. Normand, 
 K. Raghavachari, A. Rendell, J. C. Burant, S. S. Iyengar, J. Tomasi, 
 M. Cossi, N. Rega, J. M. Millam, M. Klene, J. E. Knox, J. B. Cross, 
 V. Bakken, C. Adamo, J. Jaramillo, R. Gomperts, R. E. Stratmann, 
 O. Yazyev, A. J. Austin, R. Cammi, C. Pomelli, J. W. Ochterski, 
 R. L. Martin, K. Morokuma, V. G. Zakrzewski, G. A. Voth, 
 P. Salvador, J. J. Dannenberg, S. Dapprich, A. D. Daniels, 
 O. Farkas, J. B. Foresman, J. V. Ortiz, J. Cioslowski, 
 and D. J. Fox, Gaussian, Inc., Wallingford CT, 2009.
 
 ******************************************
 Gaussian 09:  EM64L-G09RevA.02 11-Jun-2009
                26-May-2021 
 ******************************************
 %chk=c2h6_032.chk
 %mem=100MB
 --------------------------------
 #p b3lyp/6-31+g(d,p) force nosym
 --------------------------------
 1/10=7,30=1,38=1/1,3;
 2/12=2,15=1,17=6,18=5,40=1/2;
 3/5=1,6=6,7=111,11=2,16=1,25=1,30=1,71=1,74=-5/1,2,3;
 4//1;
 5/5=2,38=5/2;
 6/7=2,8=2,9=2,10=2,28=1/1;
 7/29=1,30=1/1,2,3,16;
 1/10=7,30=1/3;
 99//99;
 Leave Link    1 at Wed May 26 19:13:06 2021, MaxMem=   13107200 cpu:       0.0
 (Enter /programs/64bit/g09/g09-gfortran/bin/l101.exe)
 -------------
 c2h6 molecule
 -------------
 Symbolic Z-matrix:
 Charge =  0 Multiplicity = 1
 C1
 C2                   1    d1
 H3                   1    d2       2    a1
 H4                   1    d3       2    a2       3    t1       0
 H5                   1    d4       2    a3       3    t2       0
 H6                   2    d5       1    a4       3    t3       0
 H7                   2    d6       1    a5       6    t4       0
 H8                   2    d7       1    a6       6    t5       0
       Variables:
       Constants:
  d1                    1.71386                  
  a1                  150.12714                  
  t1                   98.81794                  
  d2                    1.09028                  
  a2                   88.36763                  
  t2                 -157.66399                  
  d3                    1.08938                  
  d4                    1.08557                  
  a3                   86.22645                  
  d5                    1.08755                  
  a4                   90.48553                  
  t3                  179.82907                  
  d6                    1.09317                  
  a5                   90.6876                   
  t4                  122.3374                   
  d7                    1.10366                  
  a6                  156.06951                  
  t5                 -120.0004                   
 
 NAtoms=      8 NQM=      8 NQMF=      0 NMic=      0 NMicF=      0 NTot=      8.
                    Isotopes and Nuclear Properties:
 (Nuclear quadrupole moments (NQMom) in fm**2, nuclear magnetic moments (NMagM)
  in nuclear magnetons)

  Atom         1           2           3           4           5           6           7           8
 IAtWgt=          12          12           1           1           1           1           1           1
 AtmWgt=  12.0000000  12.0000000   1.0078250   1.0078250   1.0078250   1.0078250   1.0078250   1.0078250
 NucSpn=           0           0           1           1           1           1           1           1
 AtZEff=   0.0000000   0.0000000   0.0000000   0.0000000   0.0000000   0.0000000   0.0000000   0.0000000
 NQMom=    0.0000000   0.0000000   0.0000000   0.0000000   0.0000000   0.0000000   0.0000000   0.0000000
 NMagM=    0.0000000   0.0000000   2.7928460   2.7928460   2.7928460   2.7928460   2.7928460   2.7928460
 Leave Link  101 at Wed May 26 19:13:06 2021, MaxMem=   13107200 cpu:       0.0
 (Enter /programs/64bit/g09/g09-gfortran/bin/l103.exe)

 GradGradGradGradGradGradGradGradGradGradGradGradGradGradGradGradGradGrad
 Berny optimization.
 Initialization pass.
                       ----------------------------
                       !    Initial Parameters    !
                       ! (Angstroms and Degrees)  !
 ----------------------                            ----------------------
 !      Name          Value   Derivative information (Atomic Units)     !
 ------------------------------------------------------------------------
 !       d1          1.7139   Frozen                                    !
 !       a1        150.1271   Frozen                                    !
 !       t1         98.8179   Frozen                                    !
 !       d2          1.0903   Frozen                                    !
 !       a2         88.3676   Frozen                                    !
 !       t2       -157.664    Frozen                                    !
 !       d3          1.0894   Frozen                                    !
 !       d4          1.0856   Frozen                                    !
 !       a3         86.2265   Frozen                                    !
 !       d5          1.0876   Frozen                                    !
 !       a4         90.4855   Frozen                                    !
 !       t3        179.8291   Frozen                                    !
 !       d6          1.0932   Frozen                                    !
 !       a5         90.6876   Frozen                                    !
 !       t4        122.3374   Frozen                                    !
 !       d7          1.1037   Frozen                                    !
 !       a6        156.0695   Frozen                                    !
 !       t5       -120.0004   Frozen                                    !
 ------------------------------------------------------------------------
 Trust Radius=3.00D-01 FncErr=1.00D-07 GrdErr=1.00D-07
 Number of steps in this run=   2 maximum allowed number of steps=   2.
 GradGradGradGradGradGradGradGradGradGradGradGradGradGradGradGradGradGrad

 Leave Link  103 at Wed May 26 19:13:06 2021, MaxMem=   13107200 cpu:       0.0
 (Enter /programs/64bit/g09/g09-gfortran/bin/l202.exe)
                          Input orientation:                          
 ---------------------------------------------------------------------
 Center     Atomic      Atomic             Coordinates (Angstroms)
 Number     Number       Type             X           Y           Z
 ---------------------------------------------------------------------
      1          6           0        0.000000    0.000000    0.000000
      2          6           0        0.000000    0.000000    1.713856
      3          1           0        0.543042    0.000000   -0.945415
      4          1           0       -0.166929   -1.076064    0.031032
      5          1           0       -1.001942    0.411662    0.071445
      6          1           0       -1.087509    0.003244    1.723072
      7          1           0        0.581940   -0.925306    1.726975
      8          1           0        0.224996    0.387027    2.722643
 ---------------------------------------------------------------------
                    Distance matrix (angstroms):
                    1          2          3          4          5
     1  C    0.000000
     2  C    1.713856   0.000000
     3  H    1.090277   2.714152   0.000000
     4  H    1.089377   2.004414   1.617226   0.000000
     5  H    1.085568   1.967453   1.894847   1.706520   0.000000
     6  H    2.037563   1.087553   3.127224   2.208025   1.703526
     7  H    2.043841   1.093168   2.828316   1.860041   2.652724
     8  H    2.759203   1.103660   3.702107   3.088529   2.921445
                    6          7          8
     6  H    0.000000
     7  H    1.910309   0.000000
     8  H    1.693842   1.685521   0.000000
 Symmetry turned off by external request.
 Stoichiometry    C2H6
 Framework group  C1[X(C2H6)]
 Deg. of freedom    18
 Full point group                 C1      NOp   1
 Rotational constants (GHZ):     97.4438518     17.3978643     16.5027007
 Leave Link  202 at Wed May 26 19:13:06 2021, MaxMem=   13107200 cpu:       0.0
 (Enter /programs/64bit/g09/g09-gfortran/bin/l301.exe)
 Standard basis: 6-31+G(d,p) (6D, 7F)
 Ernie: Thresh=  0.10000D-02 Tol=  0.10000D-05 Strict=F.
 Integral buffers will be    131072 words long.
 Raffenetti 2 integral format.
 Two-electron integral symmetry is turned off.
    68 basis functions,   106 primitive gaussians,    68 cartesian basis functions
     9 alpha electrons        9 beta electrons
       nuclear repulsion energy        40.9038658729 Hartrees.
 IExCor=  402 DFT=T Ex+Corr=B3LYP ExCW=0 ScaHFX=  0.200000
 ScaDFX=  0.800000  0.720000  1.000000  0.810000 ScalE2=  1.000000  1.000000
 IRadAn=      0 IRanWt=     -1 IRanGd=            0 ICorTp=0
 NAtoms=    8 NActive=    8 NUniq=    8 SFac= 7.50D-01 NAtFMM=   80 NAOKFM=F Big=F
 Leave Link  301 at Wed May 26 19:13:06 2021, MaxMem=   13107200 cpu:       0.0
 (Enter /programs/64bit/g09/g09-gfortran/bin/l302.exe)
 NPDir=0 NMtPBC=     1 NCelOv=     1 NCel=       1 NClECP=     1 NCelD=      1
         NCelK=      1 NCelE2=     1 NClLst=     1 CellRange=     0.0.
 One-electron integrals computed using PRISM.
 NBasis=    68 RedAO= T  NBF=    68
 NBsUse=    68 1.00D-06 NBFU=    68
 Precomputing XC quadrature grid using
 IXCGrd= 2 IRadAn=           0 IRanWt=          -1 IRanGd=           0 AccXCQ= 1.00D-10.
 NRdTot=     510 NPtTot=       65100 NUsed=       68787 NTot=       68819
 NSgBfM=    68    68    68    68    68 NAtAll=     8     8.
 Leave Link  302 at Wed May 26 19:13:06 2021, MaxMem=   13107200 cpu:       0.1
 (Enter /programs/64bit/g09/g09-gfortran/bin/l303.exe)
 DipDrv:  MaxL=1.
 Leave Link  303 at Wed May 26 19:13:06 2021, MaxMem=   13107200 cpu:       0.0
 (Enter /programs/64bit/g09/g09-gfortran/bin/l401.exe)
 Harris functional with IExCor=  402 diagonalized for initial guess.
 ExpMin= 4.38D-02 ExpMax= 3.05D+03 ExpMxC= 4.57D+02 IAcc=2 IRadAn=         0 AccDes= 0.00D+00
 HarFok:  IExCor=  402 AccDes= 0.00D+00 IRadAn=         0 IDoV= 1
 ScaDFX=  1.000000  1.000000  1.000000  1.000000
 FoFCou: FMM=F IPFlag=           0 FMFlag=      100000 FMFlg1=           0
         NFxFlg=           0 DoJE=T BraDBF=F KetDBF=T FulRan=T
         Omega=  0.000000  0.000000  1.000000  0.000000  0.000000 ICntrl=     500 IOpCl=  0
         NMat0=    1 NMatS0=    1 NMatT0=    0 NMatD0=    1 NMtDS0=    0 NMtDT0=    0
         I1Cent=           4 NGrid=           0.
 Symmetry not used in FoFCou.
 Harris En= -79.7671918816557    
 Leave Link  401 at Wed May 26 19:13:07 2021, MaxMem=   13107200 cpu:       0.7
 (Enter /programs/64bit/g09/g09-gfortran/bin/l502.exe)
 Closed shell SCF:
 Requested convergence on RMS density matrix=1.00D-08 within 128 cycles.
 Requested convergence on MAX density matrix=1.00D-06.
 Requested convergence on             energy=1.00D-06.
 No special actions if energy rises.
 Using DIIS extrapolation, IDIIS=  1040.
 Two-electron integral symmetry not used.
        68702 words used for storage of precomputed grid.
 Keep R1 ints in memory in canonical form, NReq=3743087.
 IEnd=      101552 IEndB=      101552 NGot=    13107200 MDV=    10273922
 LenX=    10273922 LenY=    10268857
 Symmetry not used in FoFDir.
 MinBra= 0 MaxBra= 2 Meth= 1.
 IRaf=       0 NMat=   1 IRICut=       1 DoRegI=T DoRafI=F ISym2E= 0 JSym2E=0.

 Cycle   1  Pass 1  IDiag  1:
 E= -79.6119029528216    
 DIIS: error= 3.56D-02 at cycle   1 NSaved=   1.
 NSaved= 1 IEnMin= 1 EnMin= -79.6119029528216     IErMin= 1 ErrMin= 3.56D-02
 ErrMax= 3.56D-02 EMaxC= 1.00D-01 BMatC= 9.40D-02 BMatP= 9.40D-02
 IDIUse=3 WtCom= 6.44D-01 WtEn= 3.56D-01
 Coeff-Com:  0.100D+01
 Coeff-En:   0.100D+01
 Coeff:      0.100D+01
 Gap=     0.321 Goal=   None    Shift=    0.000
 GapD=    0.321 DampG=1.000 DampE=0.500 DampFc=0.5000 IDamp=-1.
 Damping current iteration by 5.00D-01
 RMSDP=1.11D-02 MaxDP=1.30D-01              OVMax= 2.07D-01

 Cycle   2  Pass 1  IDiag  1:
 E= -79.6572475295369     Delta-E=       -0.045344576715 Rises=F Damp=T
 DIIS: error= 9.21D-03 at cycle   2 NSaved=   2.
 NSaved= 2 IEnMin= 2 EnMin= -79.6572475295369     IErMin= 2 ErrMin= 9.21D-03
 ErrMax= 9.21D-03 EMaxC= 1.00D-01 BMatC= 4.33D-03 BMatP= 9.40D-02
 IDIUse=3 WtCom= 9.08D-01 WtEn= 9.21D-02
 Coeff-Com:  0.104D+00 0.896D+00
 Coeff-En:   0.175D+00 0.825D+00
 Coeff:      0.111D+00 0.889D+00
 Gap=     0.303 Goal=   None    Shift=    0.000
 RMSDP=2.04D-03 MaxDP=2.94D-02 DE=-4.53D-02 OVMax= 1.17D-01

 Cycle   3  Pass 1  IDiag  1:
 E= -79.7200374470866     Delta-E=       -0.062789917550 Rises=F Damp=F
 DIIS: error= 2.04D-03 at cycle   3 NSaved=   3.
 NSaved= 3 IEnMin= 3 EnMin= -79.7200374470866     IErMin= 3 ErrMin= 2.04D-03
 ErrMax= 2.04D-03 EMaxC= 1.00D-01 BMatC= 3.22D-04 BMatP= 4.33D-03
 IDIUse=3 WtCom= 9.80D-01 WtEn= 2.04D-02
 Coeff-Com:  0.620D-02 0.182D+00 0.812D+00
 Coeff-En:   0.000D+00 0.000D+00 0.100D+01
 Coeff:      0.607D-02 0.178D+00 0.816D+00
 Gap=     0.294 Goal=   None    Shift=    0.000
 RMSDP=4.54D-04 MaxDP=4.60D-03 DE=-6.28D-02 OVMax= 6.42D-03

 Cycle   4  Pass 1  IDiag  1:
 E= -79.7203510334343     Delta-E=       -0.000313586348 Rises=F Damp=F
 DIIS: error= 4.45D-04 at cycle   4 NSaved=   4.
 NSaved= 4 IEnMin= 4 EnMin= -79.7203510334343     IErMin= 4 ErrMin= 4.45D-04
 ErrMax= 4.45D-04 EMaxC= 1.00D-01 BMatC= 1.53D-05 BMatP= 3.22D-04
 IDIUse=3 WtCom= 9.96D-01 WtEn= 4.45D-03
 Coeff-Com: -0.524D-03 0.227D-03 0.175D+00 0.825D+00
 Coeff-En:   0.000D+00 0.000D+00 0.000D+00 0.100D+01
 Coeff:     -0.521D-03 0.226D-03 0.175D+00 0.826D+00
 Gap=     0.294 Goal=   None    Shift=    0.000
 RMSDP=1.12D-04 MaxDP=1.35D-03 DE=-3.14D-04 OVMax= 1.68D-03

 Cycle   5  Pass 1  IDiag  1:
 E= -79.7203656086614     Delta-E=       -0.000014575227 Rises=F Damp=F
 DIIS: error= 1.21D-04 at cycle   5 NSaved=   5.
 NSaved= 5 IEnMin= 5 EnMin= -79.7203656086614     IErMin= 5 ErrMin= 1.21D-04
 ErrMax= 1.21D-04 EMaxC= 1.00D-01 BMatC= 1.51D-06 BMatP= 1.53D-05
 IDIUse=3 WtCom= 9.99D-01 WtEn= 1.21D-03
 Coeff-Com: -0.164D-03-0.138D-02 0.874D-01 0.444D+00 0.470D+00
 Coeff-En:   0.000D+00 0.000D+00 0.000D+00 0.000D+00 0.100D+01
 Coeff:     -0.164D-03-0.138D-02 0.873D-01 0.444D+00 0.471D+00
 Gap=     0.294 Goal=   None    Shift=    0.000
 RMSDP=1.98D-05 MaxDP=2.80D-04 DE=-1.46D-05 OVMax= 5.72D-04

 Cycle   6  Pass 1  IDiag  1:
 E= -79.7203671788775     Delta-E=       -0.000001570216 Rises=F Damp=F
 DIIS: error= 2.61D-05 at cycle   6 NSaved=   6.
 NSaved= 6 IEnMin= 6 EnMin= -79.7203671788775     IErMin= 6 ErrMin= 2.61D-05
 ErrMax= 2.61D-05 EMaxC= 1.00D-01 BMatC= 7.34D-08 BMatP= 1.51D-06
 IDIUse=1 WtCom= 1.00D+00 WtEn= 0.00D+00
 Coeff-Com:  0.142D-03-0.743D-03 0.101D-01 0.629D-01 0.197D+00 0.731D+00
 Coeff:      0.142D-03-0.743D-03 0.101D-01 0.629D-01 0.197D+00 0.731D+00
 Gap=     0.294 Goal=   None    Shift=    0.000
 RMSDP=4.01D-06 MaxDP=5.80D-05 DE=-1.57D-06 OVMax= 9.00D-05

 Cycle   7  Pass 1  IDiag  1:
 E= -79.7203672550210     Delta-E=       -0.000000076144 Rises=F Damp=F
 DIIS: error= 3.09D-06 at cycle   7 NSaved=   7.
 NSaved= 7 IEnMin= 7 EnMin= -79.7203672550210     IErMin= 7 ErrMin= 3.09D-06
 ErrMax= 3.09D-06 EMaxC= 1.00D-01 BMatC= 1.26D-09 BMatP= 7.34D-08
 IDIUse=1 WtCom= 1.00D+00 WtEn= 0.00D+00
 Coeff-Com:  0.709D-04-0.178D-03-0.118D-02-0.252D-02 0.350D-01 0.192D+00
 Coeff-Com:  0.777D+00
 Coeff:      0.709D-04-0.178D-03-0.118D-02-0.252D-02 0.350D-01 0.192D+00
 Coeff:      0.777D+00
 Gap=     0.294 Goal=   None    Shift=    0.000
 RMSDP=1.02D-06 MaxDP=1.06D-05 DE=-7.61D-08 OVMax= 1.43D-05

 Cycle   8  Pass 1  IDiag  1:
 E= -79.7203672565215     Delta-E=       -0.000000001500 Rises=F Damp=F
 DIIS: error= 6.32D-07 at cycle   8 NSaved=   8.
 NSaved= 8 IEnMin= 8 EnMin= -79.7203672565215     IErMin= 8 ErrMin= 6.32D-07
 ErrMax= 6.32D-07 EMaxC= 1.00D-01 BMatC= 2.55D-11 BMatP= 1.26D-09
 IDIUse=1 WtCom= 1.00D+00 WtEn= 0.00D+00
 Coeff-Com:  0.121D-04-0.182D-04-0.503D-03-0.205D-02 0.224D-02 0.191D-01
 Coeff-Com:  0.168D+00 0.813D+00
 Coeff:      0.121D-04-0.182D-04-0.503D-03-0.205D-02 0.224D-02 0.191D-01
 Coeff:      0.168D+00 0.813D+00
 Gap=     0.294 Goal=   None    Shift=    0.000
 RMSDP=1.53D-07 MaxDP=1.79D-06 DE=-1.50D-09 OVMax= 2.54D-06

 Cycle   9  Pass 1  IDiag  1:
 E= -79.7203672565539     Delta-E=       -0.000000000032 Rises=F Damp=F
 DIIS: error= 8.49D-08 at cycle   9 NSaved=   9.
 NSaved= 9 IEnMin= 9 EnMin= -79.7203672565539     IErMin= 9 ErrMin= 8.49D-08
 ErrMax= 8.49D-08 EMaxC= 1.00D-01 BMatC= 6.24D-13 BMatP= 2.55D-11
 IDIUse=1 WtCom= 1.00D+00 WtEn= 0.00D+00
 Coeff-Com: -0.463D-06 0.202D-05-0.435D-04-0.196D-03-0.563D-03-0.248D-02
 Coeff-Com:  0.633D-02 0.144D+00 0.853D+00
 Coeff:     -0.463D-06 0.202D-05-0.435D-04-0.196D-03-0.563D-03-0.248D-02
 Coeff:      0.633D-02 0.144D+00 0.853D+00
 Gap=     0.294 Goal=   None    Shift=    0.000
 RMSDP=2.10D-08 MaxDP=2.38D-07 DE=-3.23D-11 OVMax= 4.22D-07

 Cycle  10  Pass 1  IDiag  1:
 E= -79.7203672565547     Delta-E=       -0.000000000001 Rises=F Damp=F
 DIIS: error= 1.26D-08 at cycle  10 NSaved=  10.
 NSaved=10 IEnMin=10 EnMin= -79.7203672565547     IErMin=10 ErrMin= 1.26D-08
 ErrMax= 1.26D-08 EMaxC= 1.00D-01 BMatC= 1.42D-14 BMatP= 6.24D-13
 IDIUse=1 WtCom= 1.00D+00 WtEn= 0.00D+00
 Coeff-Com: -0.432D-06 0.688D-06-0.744D-06-0.344D-05-0.176D-03-0.949D-03
 Coeff-Com: -0.226D-02 0.103D-01 0.158D+00 0.835D+00
 Coeff:     -0.432D-06 0.688D-06-0.744D-06-0.344D-05-0.176D-03-0.949D-03
 Coeff:     -0.226D-02 0.103D-01 0.158D+00 0.835D+00
 Gap=     0.294 Goal=   None    Shift=    0.000
 RMSDP=3.35D-09 MaxDP=3.41D-08 DE=-7.96D-13 OVMax= 5.01D-08

 SCF Done:  E(RB3LYP) =  -79.7203672566     A.U. after   10 cycles
             Convg  =    0.3353D-08             -V/T =  2.0104
 KE= 7.889748303301D+01 PE=-2.652169238250D+02 EE= 6.569520766248D+01
 Leave Link  502 at Wed May 26 19:13:13 2021, MaxMem=   13107200 cpu:       6.4
 (Enter /programs/64bit/g09/g09-gfortran/bin/l601.exe)
 Copying SCF densities to generalized density rwf, IOpCl= 0 IROHF=0.

 **********************************************************************

            Population analysis using the SCF density.

 **********************************************************************

 Alpha  occ. eigenvalues --  -10.19846 -10.19713  -0.75491  -0.63052  -0.47300
 Alpha  occ. eigenvalues --   -0.43339  -0.36752  -0.32828  -0.28987
 Alpha virt. eigenvalues --    0.00388   0.00938   0.04963   0.05809   0.06637
 Alpha virt. eigenvalues --    0.07452   0.08688   0.10353   0.14732   0.15553
 Alpha virt. eigenvalues --    0.19813   0.21478   0.25520   0.29614   0.33015
 Alpha virt. eigenvalues --    0.64466   0.64752   0.65743   0.69018   0.73996
 Alpha virt. eigenvalues --    0.75711   0.88008   0.88990   0.95056   0.97302
 Alpha virt. eigenvalues --    1.03411   1.04482   1.05906   1.21315   1.30137
 Alpha virt. eigenvalues --    1.43638   1.54264   1.70259   1.80653   1.93311
 Alpha virt. eigenvalues --    1.96688   2.03164   2.11060   2.14702   2.17823
 Alpha virt. eigenvalues --    2.22151   2.26789   2.36428   2.39790   2.58318
 Alpha virt. eigenvalues --    2.66169   2.66549   2.71090   2.74127   2.87460
 Alpha virt. eigenvalues --    2.91864   3.22343   3.26881   3.36304   3.41718
 Alpha virt. eigenvalues --    3.51149   3.66022   4.26643   4.68813
          Condensed to atoms (all electrons):
              1          2          3          4          5          6
     1  C    5.246533   0.133578   0.356165   0.437983   0.429634  -0.089916
     2  C    0.133578   5.226761   0.016568  -0.089501  -0.081765   0.442632
     3  H    0.356165   0.016568   0.535455  -0.050246  -0.017228   0.003774
     4  H    0.437983  -0.089501  -0.050246   0.620067  -0.037790  -0.005927
     5  H    0.429634  -0.081765  -0.017228  -0.037790   0.564519  -0.016851
     6  H   -0.089916   0.442632   0.003774  -0.005927  -0.016851   0.593838
     7  H   -0.096411   0.443133   0.002315  -0.025396   0.006076  -0.015484
     8  H    0.036736   0.339306  -0.000835   0.004058   0.000642  -0.045612
              7          8
     1  C   -0.096411   0.036736
     2  C    0.443133   0.339306
     3  H    0.002315  -0.000835
     4  H   -0.025396   0.004058
     5  H    0.006076   0.000642
     6  H   -0.015484  -0.045612
     7  H    0.582406  -0.041255
     8  H   -0.041255   0.553657
 Mulliken atomic charges:
              1
     1  C   -0.454302
     2  C   -0.430712
     3  H    0.154031
     4  H    0.146753
     5  H    0.152764
     6  H    0.133546
     7  H    0.144617
     8  H    0.153304
 Sum of Mulliken atomic charges =  -0.00000
 Mulliken charges with hydrogens summed into heavy atoms:
              1
     1  C   -0.000754
     2  C    0.000754
 Sum of Mulliken charges with hydrogens summed into heavy atoms =  -0.00000
 Electronic spatial extent (au):  <R**2>=            167.1728
 Charge=             -0.0000 electrons
 Dipole moment (field-independent basis, Debye):
    X=             -0.2596    Y=             -0.5364    Z=             -0.0209  Tot=              0.5963
 Quadrupole moment (field-independent basis, Debye-Ang):
   XX=            -15.4471   YY=            -16.3775   ZZ=            -14.7342
   XY=             -1.0420   XZ=             -0.7310   YZ=              0.1908
 Traceless Quadrupole moment (field-independent basis, Debye-Ang):
   XX=              0.0725   YY=             -0.8579   ZZ=              0.7854
   XY=             -1.0420   XZ=             -0.7310   YZ=              0.1908
 Octapole moment (field-independent basis, Debye-Ang**2):
  XXX=              1.0507  YYY=              1.7782  ZZZ=            -38.1867  XYY=              0.8935
  XXY=              0.9642  XXZ=            -13.1846  XZZ=              1.1865  YZZ=              1.3921
  YYZ=            -14.7482  XYZ=             -1.1268
 Hexadecapole moment (field-independent basis, Debye-Ang**3):
 XXXX=            -30.9864 YYYY=            -30.6941 ZZZZ=           -169.0947 XXXY=             -0.1607
 XXXZ=              0.2904 YYYX=              0.1887 YYYZ=              1.0804 ZZZX=              1.9269
 ZZZY=              4.6306 XXYY=            -10.5092 XXZZ=            -35.8778 YYZZ=            -38.8881
 XXYZ=              0.5157 YYXZ=              0.8795 ZZXY=             -1.4785
 N-N= 4.090386587293D+01 E-N=-2.652169234475D+02  KE= 7.889748303301D+01
 No NMR shielding tensors so no spin-rotation constants.
 Leave Link  601 at Wed May 26 19:13:13 2021, MaxMem=   13107200 cpu:       0.0
 (Enter /programs/64bit/g09/g09-gfortran/bin/l701.exe)
 Compute integral first derivatives.
 ... and contract with generalized density number  0.
 Leave Link  701 at Wed May 26 19:13:13 2021, MaxMem=   13107200 cpu:       0.1
 (Enter /programs/64bit/g09/g09-gfortran/bin/l702.exe)
 L702 exits ... SP integral derivatives will be done elsewhere.
 Leave Link  702 at Wed May 26 19:13:13 2021, MaxMem=   13107200 cpu:       0.0
 (Enter /programs/64bit/g09/g09-gfortran/bin/l703.exe)
 Compute integral first derivatives, UseDBF=F ICtDFT=           0.
 Integral derivatives from FoFDir, PRISM(SPDF).
 Calling FoFJK, ICntrl=      2127 FMM=F ISym2X=0 I1Cent= 0 IOpClX= 0 NMat=1 NMatS=1 NMatT=0.
 FoFCou: FMM=F IPFlag=           0 FMFlag=      100000 FMFlg1=         800
         NFxFlg=           0 DoJE=F BraDBF=F KetDBF=F FulRan=T
         Omega=  0.000000  0.000000  1.000000  0.000000  0.000000 ICntrl=    2127 IOpCl=  0
         NMat0=    1 NMatS0=    1 NMatT0=    0 NMatD0=    1 NMtDS0=    0 NMtDT0=    0
         I1Cent=           0 NGrid=           0.
 Symmetry not used in FoFCou.
 Leave Link  703 at Wed May 26 19:13:15 2021, MaxMem=   13107200 cpu:       1.4
 (Enter /programs/64bit/g09/g09-gfortran/bin/l716.exe)
 Dipole        =-1.02150993D-01-2.11020193D-01-8.22540246D-03
 -------------------------------------------------------------------
 Center     Atomic                   Forces (Hartrees/Bohr)
 Number     Number              X              Y              Z
 -------------------------------------------------------------------
      1        6          -0.035551659   -0.014571847    0.034984861
      2        6           0.022744696   -0.026195848   -0.010505927
      3        1           0.020282651    0.034581779    0.009395738
      4        1          -0.009089753   -0.003740264   -0.006340001
      5        1           0.000649121    0.009020293   -0.043273371
      6        1           0.000028162   -0.023693235    0.013920231
      7        1          -0.020428205   -0.012419230    0.021525560
      8        1           0.021364987    0.037018352   -0.019707092
 -------------------------------------------------------------------
 Cartesian Forces:  Max     0.043273371 RMS     0.022179284
 -----------------------------------------------------------------------------------------------
                       Internal Coordinate Forces (Hartree/Bohr or radian)
  Cent   Atom   N1       Length/X         N2         Alpha/Y        N3         Beta/Z          J
 -----------------------------------------------------------------------------------------------
      1  C 
      2  C        1   0.005233(     1)
      3  H        1   0.001955(     2)      2  -0.045878(     8)
      4  H        1   0.004907(     3)      2   0.013345(     9)      3   0.017304(    14)     0
      5  H        1  -0.000026(     4)      2   0.088961(    10)      3   0.017584(    15)     0
      6  H        2   0.000019(     5)      1   0.028609(    11)      3  -0.000572(    16)     0
      7  H        2  -0.000104(     6)      1   0.044473(    12)      6  -0.049378(    17)     0
      8  H        2  -0.000676(     7)      1  -0.098151(    13)      6   0.000114(    18)     0
 -----------------------------------------------------------------------------------------------
 Internal  Forces:  Max     0.098150598 RMS     0.037807849
 Force constants in Cartesian coordinates: 
                1             2             3             4             5 
      1  0.643139D+00
      2 -0.583830D-01  0.595521D+00
      3 -0.140358D+00 -0.139118D-01  0.633821D+00
      4 -0.979992D-01 -0.404455D-02  0.123607D-01  0.679179D+00
      5 -0.636255D-02 -0.909481D-01  0.140762D-01 -0.909700D-01  0.554793D+00
      6 -0.522483D-02 -0.962991D-02 -0.173573D+00  0.497422D-01  0.852050D-01
      7 -0.164410D+00  0.120269D-01  0.861389D-01  0.227831D-01  0.638271D-03
      8  0.244960D-01 -0.863528D-01 -0.118646D-01 -0.195657D-02  0.109760D-01
      9  0.105342D+00  0.690818D-02 -0.298328D+00  0.130865D-01  0.366620D-03
     10 -0.748542D-01 -0.587542D-01  0.204568D-01  0.574035D-03 -0.238913D-03
     11 -0.419366D-01 -0.339755D+00  0.488330D-02 -0.184603D-03 -0.651524D-03
     12  0.196842D-01 -0.754264D-03 -0.694753D-01 -0.331338D-02 -0.238771D-01
     13 -0.321956D+00  0.102261D+00  0.214014D-01 -0.188803D-03  0.237072D-02
     14  0.736237D-01 -0.105753D+00  0.681693D-02  0.338183D-02  0.413272D-02
     15  0.153317D-01  0.775790D-02 -0.924447D-01 -0.221338D-01  0.943434D-02
     16  0.201389D-03  0.367216D-05  0.000000D+00 -0.350908D+00  0.706325D-03
     17 -0.107198D-02  0.280628D-02  0.000000D+00 -0.160449D-01 -0.809668D-01
     18  0.241418D-01 -0.554593D-03  0.000000D+00  0.129261D-01 -0.117030D-01
     19  0.342820D-02  0.199760D-02  0.000000D+00 -0.147883D+00  0.106331D+00
     20  0.196892D-02  0.154097D-02  0.000000D+00  0.123406D+00 -0.277540D+00
     21 -0.131990D-01  0.200770D-01  0.000000D+00 -0.171963D-01  0.543866D-02
     22  0.124512D-01  0.489282D-02  0.000000D+00 -0.105557D+00 -0.124751D-01
     23  0.766554D-02  0.229405D-01  0.000000D+00 -0.135871D-01 -0.119795D+00
     24 -0.571800D-02 -0.989252D-02  0.000000D+00 -0.454720D-01 -0.789407D-01
                6             7             8             9            10 
      6  0.629898D+00
      7  0.000000D+00  0.140607D+00
      8  0.000000D+00 -0.808445D-02  0.602161D-01
      9  0.000000D+00 -0.119014D+00 -0.464367D-02  0.279445D+00
     10  0.000000D+00  0.836874D-03 -0.196350D-01  0.480696D-03  0.586739D-01
     11  0.000000D+00 -0.145636D-04  0.397753D-02 -0.836526D-05  0.444566D-01
     12  0.000000D+00  0.399670D-02  0.323030D-01  0.229568D-02 -0.193405D-01
     13  0.000000D+00  0.183177D-03  0.380481D-02  0.105216D-03  0.140917D-01
     14  0.000000D+00 -0.456612D-02  0.120017D-01 -0.262276D-02  0.345750D-01
     15  0.000000D+00  0.288787D-01 -0.157947D-01  0.165878D-01 -0.159698D-02
     16  0.227826D-02  0.000000D+00  0.325355D-05  0.000000D+00  0.160334D-05
     17 -0.108932D-01  0.000000D+00  0.109059D-02  0.000000D+00  0.537437D-03
     18 -0.782939D-01  0.000000D+00  0.000000D+00  0.000000D+00  0.000000D+00
     19 -0.108716D-01  0.000000D+00 -0.918481D-03  0.000000D+00 -0.452625D-03
     20 -0.304335D-02  0.000000D+00 -0.577648D-03  0.000000D+00 -0.284663D-03
     21 -0.768855D-01  0.000000D+00  0.000000D+00  0.000000D+00  0.000000D+00
     22 -0.359240D-01  0.000000D+00  0.229040D-02  0.000000D+00  0.112870D-02
     23 -0.616386D-01  0.000000D+00 -0.133151D-02  0.000000D+00 -0.656165D-03
     24 -0.301146D+00  0.000000D+00  0.000000D+00  0.000000D+00  0.000000D+00
               11            12            13            14            15 
     11  0.341803D+00
     12 -0.512970D-02  0.669358D-01
     13 -0.221565D-02 -0.102698D-02  0.308132D+00
     14 -0.543688D-02 -0.254187D-02 -0.106377D+00  0.946759D-01
     15  0.254768D-03  0.243804D-03 -0.204796D-01 -0.165231D-02  0.756131D-01
     16  0.000000D+00  0.000000D+00  0.000000D+00 -0.150870D-05  0.000000D+00
     17 -0.833720D-04  0.000000D+00 -0.207781D-03 -0.505716D-03  0.000000D+00
     18  0.000000D+00  0.000000D+00  0.000000D+00  0.000000D+00  0.000000D+00
     19  0.702151D-04  0.000000D+00  0.174991D-03  0.425910D-03  0.000000D+00
     20  0.441595D-04  0.000000D+00  0.110055D-03  0.267862D-03  0.000000D+00
     21  0.000000D+00  0.000000D+00  0.000000D+00  0.000000D+00  0.000000D+00
     22 -0.175094D-03  0.000000D+00 -0.436373D-03 -0.106208D-02  0.000000D+00
     23  0.101790D-03  0.000000D+00  0.253683D-03  0.617436D-03  0.000000D+00
     24  0.000000D+00  0.000000D+00  0.000000D+00  0.000000D+00  0.000000D+00
               16            17            18            19            20 
     16  0.350948D+00
     17 -0.802156D-03  0.507289D-01
     18 -0.233806D-02  0.110396D-01  0.711857D-01
     19  0.895623D-04  0.320446D-01 -0.712297D-03  0.133502D+00
     20  0.563139D-04  0.201425D-01 -0.445715D-03 -0.132535D+00  0.261182D+00
     21  0.000000D+00 -0.766278D-03  0.159448D-03  0.112235D-01  0.317116D-02
     22 -0.331401D-03 -0.144552D-01 -0.340175D-01  0.111408D-01  0.727848D-02
     23  0.343490D-04  0.678769D-02  0.166375D-02 -0.741604D-02 -0.505992D-02
     24  0.607362D-04  0.619884D-03  0.694882D-02  0.360399D-03  0.317904D-03
               21            22            23            24 
     21  0.702904D-01
     22  0.191726D-01  0.816041D-01
     23 -0.279206D-01  0.137057D-01  0.957391D-01
     24  0.643569D-02  0.507689D-01  0.878954D-01  0.287762D+00
 Force constants in internal coordinates: 
                1             2             3             4             5 
      1  0.173573D+00
      2  0.000000D+00  0.347806D+00
      3  0.000000D+00  0.000000D+00  0.348848D+00
      4  0.000000D+00  0.000000D+00  0.000000D+00  0.353299D+00
      5  0.000000D+00  0.000000D+00  0.000000D+00  0.000000D+00  0.350970D+00
      6  0.000000D+00  0.000000D+00  0.000000D+00  0.000000D+00  0.000000D+00
      7  0.000000D+00  0.000000D+00  0.000000D+00  0.000000D+00  0.000000D+00
      8  0.000000D+00  0.000000D+00  0.000000D+00  0.000000D+00  0.000000D+00
      9  0.000000D+00  0.000000D+00  0.000000D+00  0.000000D+00  0.000000D+00
     10  0.000000D+00  0.000000D+00  0.000000D+00  0.000000D+00  0.000000D+00
     11  0.000000D+00  0.000000D+00  0.000000D+00  0.000000D+00  0.000000D+00
     12  0.000000D+00  0.000000D+00  0.000000D+00  0.000000D+00  0.000000D+00
     13  0.000000D+00  0.000000D+00  0.000000D+00  0.000000D+00  0.000000D+00
     14  0.000000D+00  0.000000D+00  0.000000D+00  0.000000D+00  0.000000D+00
     15  0.000000D+00  0.000000D+00  0.000000D+00  0.000000D+00  0.000000D+00
     16  0.000000D+00  0.000000D+00  0.000000D+00  0.000000D+00  0.000000D+00
     17  0.000000D+00  0.000000D+00  0.000000D+00  0.000000D+00  0.000000D+00
     18  0.000000D+00  0.000000D+00  0.000000D+00  0.000000D+00  0.000000D+00
                6             7             8             9            10 
      6  0.344491D+00
      7  0.000000D+00  0.332806D+00
      8  0.000000D+00  0.000000D+00  0.306679D+00
      9  0.000000D+00  0.000000D+00  0.195571D-01  0.282699D+00
     10  0.000000D+00  0.000000D+00  0.141067D+00  0.103227D-02  0.313123D+00
     11  0.000000D+00  0.000000D+00  0.000000D+00  0.000000D+00  0.000000D+00
     12  0.000000D+00  0.000000D+00  0.000000D+00  0.000000D+00  0.000000D+00
     13  0.000000D+00  0.000000D+00  0.000000D+00  0.000000D+00  0.000000D+00
     14  0.000000D+00  0.000000D+00  0.405432D-02 -0.776626D-01 -0.684151D-02
     15  0.000000D+00  0.000000D+00  0.202032D-01  0.115570D-01  0.391854D-01
     16  0.000000D+00  0.000000D+00  0.000000D+00  0.000000D+00  0.000000D+00
     17  0.000000D+00  0.000000D+00  0.000000D+00  0.000000D+00  0.000000D+00
     18  0.000000D+00  0.000000D+00  0.000000D+00  0.000000D+00  0.000000D+00
               11            12            13            14            15 
     11  0.300586D+00
     12  0.677019D-03  0.299795D+00
     13  0.734315D-01  0.683626D-01  0.256786D+00
     14  0.000000D+00  0.000000D+00  0.000000D+00  0.219594D+00
     15  0.000000D+00  0.000000D+00  0.000000D+00 -0.159202D+00  0.212511D+00
     16  0.242167D-02 -0.249231D-02 -0.278638D-03  0.690000D-02  0.690000D-02
     17 -0.356722D-02  0.477490D-01  0.503776D-02  0.230000D-02  0.230000D-02
     18  0.525876D-01 -0.534947D-01  0.123562D-02  0.230000D-02  0.230000D-02
               16            17            18 
     16  0.483836D-01
     17  0.256820D-01  0.214338D+00
     18 -0.320603D-02 -0.279811D-01  0.524344D-01
 Leave Link  716 at Wed May 26 19:13:15 2021, MaxMem=   13107200 cpu:       0.0
 (Enter /programs/64bit/g09/g09-gfortran/bin/l103.exe)

 GradGradGradGradGradGradGradGradGradGradGradGradGradGradGradGradGradGrad
 Berny optimization.
 Search for a local minimum.
 Step number   1 out of a maximum of    2
 All quantities printed in internal units (Hartrees-Bohrs-Radians)
 Second derivative matrix not updated -- first step.
 The second derivative matrix:
                          d1        a1        t1        d2        a2
           d1           0.17357
           a1          -0.00000   0.30668
           t1          -0.00000   0.00405   0.21959
           d2           0.00000   0.00000  -0.00000   0.34781
           a2          -0.00000   0.01956  -0.07766   0.00000   0.28270
           t2          -0.00000   0.02020  -0.15920   0.00000   0.01156
           d3          -0.00000   0.00000  -0.00000  -0.00000  -0.00000
           d4           0.00000  -0.00000   0.00000  -0.00000  -0.00000
           a3          -0.00000   0.14107  -0.00684   0.00000   0.00103
           d5          -0.00000  -0.00000   0.00000   0.00000   0.00000
           a4          -0.00000  -0.00000  -0.00000   0.00000  -0.00000
           t3          -0.00000   0.00000   0.00690   0.00000  -0.00000
           d6           0.00000  -0.00000   0.00000   0.00000   0.00000
           a5           0.00000  -0.00000  -0.00000  -0.00000  -0.00000
           t4           0.00000  -0.00000   0.00230  -0.00000  -0.00000
           d7           0.00000  -0.00000  -0.00000   0.00000   0.00000
           a6          -0.00000  -0.00000   0.00000   0.00000  -0.00000
           t5          -0.00000   0.00000   0.00230   0.00000  -0.00000
                          t2        d3        d4        a3        d5
           t2           0.21251
           d3          -0.00000   0.34885
           d4          -0.00000   0.00000   0.35330
           a3           0.03919  -0.00000  -0.00000   0.31312
           d5           0.00000   0.00000   0.00000   0.00000   0.35097
           a4           0.00000  -0.00000  -0.00000   0.00000   0.00000
           t3           0.00690   0.00000   0.00000   0.00000  -0.00000
           d6          -0.00000   0.00000  -0.00000  -0.00000   0.00000
           a5           0.00000  -0.00000   0.00000   0.00000  -0.00000
           t4           0.00230  -0.00000   0.00000   0.00000   0.00000
           d7          -0.00000  -0.00000   0.00000   0.00000   0.00000
           a6           0.00000   0.00000  -0.00000  -0.00000   0.00000
           t5           0.00230  -0.00000   0.00000   0.00000  -0.00000
                          a4        t3        d6        a5        t4
           a4           0.30059
           t3           0.00242   0.04838
           d6           0.00000   0.00000   0.34449
           a5           0.00068  -0.00249   0.00000   0.29979
           t4          -0.00357   0.02568  -0.00000   0.04775   0.21434
           d7           0.00000  -0.00000  -0.00000   0.00000  -0.00000
           a6           0.07343  -0.00028   0.00000   0.06836   0.00504
           t5           0.05259  -0.00321  -0.00000  -0.05349  -0.02798
                          d7        a6        t5
           d7           0.33281
           a6           0.00000   0.25679
           t5          -0.00000   0.00124   0.05243
     Eigenvalues --- 1000.000001000.000001000.000001000.000001000.00000
     Eigenvalues --- 1000.000001000.000001000.000001000.000001000.00000
     Eigenvalues --- 1000.000001000.000001000.000001000.000001000.00000
     Eigenvalues --- 1000.000001000.000001000.00000
 Angle between quadratic step and forces=  90.00 degrees.
 Linear search not attempted -- first point.
 Variable       Old X    -DE/DX   Delta X   Delta X   Delta X     New X
                                 (Linear)    (Quad)   (Total)
    d1        3.23872   0.00523   0.00000   0.00000   0.00000   3.23872
    a1        2.62021  -0.04588   0.00000   0.00000   0.00000   2.62021
    t1        1.72470   0.01730   0.00000   0.00000   0.00000   1.72470
    d2        2.06033   0.00195   0.00000   0.00000   0.00000   2.06033
    a2        1.54231   0.01334   0.00000   0.00000   0.00000   1.54231
    t2       -2.75176   0.01758   0.00000   0.00000   0.00000  -2.75176
    d3        2.05862   0.00491   0.00000   0.00000   0.00000   2.05862
    d4        2.05143  -0.00003   0.00000   0.00000   0.00000   2.05143
    a3        1.50494   0.08896   0.00000   0.00000   0.00000   1.50494
    d5        2.05518   0.00002   0.00000   0.00000   0.00000   2.05518
    a4        1.57927   0.02861   0.00000   0.00000   0.00000   1.57927
    t3        3.13861  -0.00057   0.00000   0.00000   0.00000   3.13861
    d6        2.06579  -0.00010   0.00000   0.00000   0.00000   2.06579
    a5        1.58280   0.04447   0.00000   0.00000   0.00000   1.58280
    t4        2.13519  -0.04938   0.00000   0.00000   0.00000   2.13519
    d7        2.08561  -0.00068   0.00000   0.00000   0.00000   2.08561
    a6        2.72393  -0.09815   0.00000   0.00000   0.00000   2.72393
    t5       -2.09440   0.00011   0.00000   0.00000   0.00000  -2.09440
         Item               Value     Threshold  Converged?
 Maximum Force            0.000000     0.000450     YES
 RMS     Force            0.000000     0.000300     YES
 Maximum Displacement     0.000000     0.001800     YES
 RMS     Displacement     0.000000     0.001200     YES
 Predicted change in Energy=-0.000000D+00
 Optimization completed.
    -- Stationary point found.
                       ----------------------------
                       !   Optimized Parameters   !
                       ! (Angstroms and Degrees)  !
 ----------------------                            ----------------------
 !      Name          Value   Derivative information (Atomic Units)     !
 ------------------------------------------------------------------------
 !       d1          1.7139   -DE/DX =    0.0052                        !
 !       a1        150.1271   -DE/DX =   -0.0459                        !
 !       t1         98.8179   -DE/DX =    0.0173                        !
 !       d2          1.0903   -DE/DX =    0.002                         !
 !       a2         88.3676   -DE/DX =    0.0133                        !
 !       t2       -157.664    -DE/DX =    0.0176                        !
 !       d3          1.0894   -DE/DX =    0.0049                        !
 !       d4          1.0856   -DE/DX =    0.0                           !
 !       a3         86.2265   -DE/DX =    0.089                         !
 !       d5          1.0876   -DE/DX =    0.0                           !
 !       a4         90.4855   -DE/DX =    0.0286                        !
 !       t3        179.8291   -DE/DX =   -0.0006                        !
 !       d6          1.0932   -DE/DX =   -0.0001                        !
 !       a5         90.6876   -DE/DX =    0.0445                        !
 !       t4        122.3374   -DE/DX =   -0.0494                        !
 !       d7          1.1037   -DE/DX =   -0.0007                        !
 !       a6        156.0695   -DE/DX =   -0.0982                        !
 !       t5       -120.0004   -DE/DX =    0.0001                        !
 ------------------------------------------------------------------------
 GradGradGradGradGradGradGradGradGradGradGradGradGradGradGradGradGradGrad

 Leave Link  103 at Wed May 26 19:13:15 2021, MaxMem=   13107200 cpu:       0.0
 (Enter /programs/64bit/g09/g09-gfortran/bin/l9999.exe)
 1\1\GINC-MOLMOD\Force\RB3LYP\6-31+G(d,p)\C2H6\OSPITE\26-May-2021\1\\#p
  b3lyp/6-31+g(d,p) force nosym\\c2h6 molecule\\0,1\C\C,1,d1\H,1,d2,2,a
 1\H,1,d3,2,a2,3,t1,0\H,1,d4,2,a3,3,t2,0\H,2,d5,1,a4,3,t3,0\H,2,d6,1,a5
 ,6,t4,0\H,2,d7,1,a6,6,t5,0\\d1=1.71385635\a1=150.12713593\t1=98.817940
 96\d2=1.0902772\a2=88.36763395\t2=-157.66398723\d3=1.08937679\d4=1.085
 56817\a3=86.22645119\d5=1.08755263\a4=90.48553212\t3=179.82906993\d6=1
 .09316827\a5=90.68759754\t4=122.33739565\d7=1.10365953\a6=156.06951461
 \t5=-120.00039678\\Version=EM64L-G09RevA.02\HF=-79.7203673\RMSD=3.353e
 -09\RMSF=2.218e-02\Dipole=-0.102151,-0.2110202,-0.0082254\Quadrupole=0
 .0539122,-0.63783,0.5839179,-0.7747385,-0.543509,0.1418725\PG=C01 [X(C
 2H6)]\\@


 Standing in the middle of the road is very dangerous;
 you get knocked down by the traffic from both sides.
                                -- Margaret Thatcher
 Job cpu time:  0 days  0 hours  0 minutes  8.9 seconds.
 File lengths (MBytes):  RWF=      5 Int=      0 D2E=      0 Chk=      1 Scr=      1
 Normal termination of Gaussian 09 at Wed May 26 19:13:15 2021.
