 Entering Gaussian System, Link 0=g09
 Input=c2h6_059.com
 Output=c2h6_059.log
 Initial command:
 /programs/64bit/g09/g09-gfortran/bin/l1.exe /data/scratch/Gau-7348.inp -scrdir=/data/scratch/
 Entering Link 1 = /programs/64bit/g09/g09-gfortran/bin/l1.exe PID=      7349.
  
 Copyright (c) 1988,1990,1992,1993,1995,1998,2003,2009, Gaussian, Inc.
                  All Rights Reserved.
  
 This is part of the Gaussian(R) 09 program.  It is based on
 the Gaussian(R) 03 system (copyright 2003, Gaussian, Inc.),
 the Gaussian(R) 98 system (copyright 1998, Gaussian, Inc.),
 the Gaussian(R) 94 system (copyright 1995, Gaussian, Inc.),
 the Gaussian 92(TM) system (copyright 1992, Gaussian, Inc.),
 the Gaussian 90(TM) system (copyright 1990, Gaussian, Inc.),
 the Gaussian 88(TM) system (copyright 1988, Gaussian, Inc.),
 the Gaussian 86(TM) system (copyright 1986, Carnegie Mellon
 University), and the Gaussian 82(TM) system (copyright 1983,
 Carnegie Mellon University). Gaussian is a federally registered
 trademark of Gaussian, Inc.
  
 This software contains proprietary and confidential information,
 including trade secrets, belonging to Gaussian, Inc.
  
 This software is provided under written license and may be
 used, copied, transmitted, or stored only in accord with that
 written license.
  
 The following legend is applicable only to US Government
 contracts under FAR:
  
                    RESTRICTED RIGHTS LEGEND
  
 Use, reproduction and disclosure by the US Government is
 subject to restrictions as set forth in subparagraphs (a)
 and (c) of the Commercial Computer Software - Restricted
 Rights clause in FAR 52.227-19.
  
 Gaussian, Inc.
 340 Quinnipiac St., Bldg. 40, Wallingford CT 06492
  
  
 ---------------------------------------------------------------
 Warning -- This program may not be used in any manner that
 competes with the business of Gaussian, Inc. or will provide
 assistance to any competitor of Gaussian, Inc.  The licensee
 of this program is prohibited from giving any competitor of
 Gaussian, Inc. access to this program.  By using this program,
 the user acknowledges that Gaussian, Inc. is engaged in the
 business of creating and licensing software in the field of
 computational chemistry and represents and warrants to the
 licensee that it is not a competitor of Gaussian, Inc. and that
 it will not use this program in any manner prohibited above.
 ---------------------------------------------------------------
  

 Cite this work as:
 Gaussian 09, Revision A.02,
 M. J. Frisch, G. W. Trucks, H. B. Schlegel, G. E. Scuseria, 
 M. A. Robb, J. R. Cheeseman, G. Scalmani, V. Barone, B. Mennucci, 
 G. A. Petersson, H. Nakatsuji, M. Caricato, X. Li, H. P. Hratchian, 
 A. F. Izmaylov, J. Bloino, G. Zheng, J. L. Sonnenberg, M. Hada, 
 M. Ehara, K. Toyota, R. Fukuda, J. Hasegawa, M. Ishida, T. Nakajima, 
 Y. Honda, O. Kitao, H. Nakai, T. Vreven, J. A. Montgomery, Jr., 
 J. E. Peralta, F. Ogliaro, M. Bearpark, J. J. Heyd, E. Brothers, 
 K. N. Kudin, V. N. Staroverov, R. Kobayashi, J. Normand, 
 K. Raghavachari, A. Rendell, J. C. Burant, S. S. Iyengar, J. Tomasi, 
 M. Cossi, N. Rega, J. M. Millam, M. Klene, J. E. Knox, J. B. Cross, 
 V. Bakken, C. Adamo, J. Jaramillo, R. Gomperts, R. E. Stratmann, 
 O. Yazyev, A. J. Austin, R. Cammi, C. Pomelli, J. W. Ochterski, 
 R. L. Martin, K. Morokuma, V. G. Zakrzewski, G. A. Voth, 
 P. Salvador, J. J. Dannenberg, S. Dapprich, A. D. Daniels, 
 O. Farkas, J. B. Foresman, J. V. Ortiz, J. Cioslowski, 
 and D. J. Fox, Gaussian, Inc., Wallingford CT, 2009.
 
 ******************************************
 Gaussian 09:  EM64L-G09RevA.02 11-Jun-2009
                26-May-2021 
 ******************************************
 %chk=c2h6_059.chk
 %mem=100MB
 --------------------------------
 #p b3lyp/6-31+g(d,p) force nosym
 --------------------------------
 1/10=7,30=1,38=1/1,3;
 2/12=2,15=1,17=6,18=5,40=1/2;
 3/5=1,6=6,7=111,11=2,16=1,25=1,30=1,71=1,74=-5/1,2,3;
 4//1;
 5/5=2,38=5/2;
 6/7=2,8=2,9=2,10=2,28=1/1;
 7/29=1,30=1/1,2,3,16;
 1/10=7,30=1/3;
 99//99;
 Leave Link    1 at Wed May 26 19:17:37 2021, MaxMem=   13107200 cpu:       0.0
 (Enter /programs/64bit/g09/g09-gfortran/bin/l101.exe)
 -------------
 c2h6 molecule
 -------------
 Symbolic Z-matrix:
 Charge =  0 Multiplicity = 1
 C1
 C2                   1    d1
 H3                   1    d2       2    a1
 H4                   1    d3       2    a2       3    t1       0
 H5                   1    d4       2    a3       3    t2       0
 H6                   2    d5       1    a4       3    t3       0
 H7                   2    d6       1    a5       6    t4       0
 H8                   2    d7       1    a6       6    t5       0
       Variables:
       Constants:
  d1                    1.53696                  
  a1                  111.67546                  
  t1                  107.38527                  
  d2                    1.09325                  
  a2                  104.48787                  
  t2                 -142.1991                   
  d3                    1.10401                  
  d4                    1.08941                  
  a3                  113.97267                  
  d5                    1.09649                  
  a4                  106.05205                  
  t3                  179.11058                  
  d6                    1.09644                  
  a5                  114.57453                  
  t4                  113.44271                  
  d7                    1.09423                  
  a6                  114.42682                  
  t5                 -123.11606                  
 
 NAtoms=      8 NQM=      8 NQMF=      0 NMic=      0 NMicF=      0 NTot=      8.
                    Isotopes and Nuclear Properties:
 (Nuclear quadrupole moments (NQMom) in fm**2, nuclear magnetic moments (NMagM)
  in nuclear magnetons)

  Atom         1           2           3           4           5           6           7           8
 IAtWgt=          12          12           1           1           1           1           1           1
 AtmWgt=  12.0000000  12.0000000   1.0078250   1.0078250   1.0078250   1.0078250   1.0078250   1.0078250
 NucSpn=           0           0           1           1           1           1           1           1
 AtZEff=   0.0000000   0.0000000   0.0000000   0.0000000   0.0000000   0.0000000   0.0000000   0.0000000
 NQMom=    0.0000000   0.0000000   0.0000000   0.0000000   0.0000000   0.0000000   0.0000000   0.0000000
 NMagM=    0.0000000   0.0000000   2.7928460   2.7928460   2.7928460   2.7928460   2.7928460   2.7928460
 Leave Link  101 at Wed May 26 19:17:37 2021, MaxMem=   13107200 cpu:       0.0
 (Enter /programs/64bit/g09/g09-gfortran/bin/l103.exe)

 GradGradGradGradGradGradGradGradGradGradGradGradGradGradGradGradGradGrad
 Berny optimization.
 Initialization pass.
                       ----------------------------
                       !    Initial Parameters    !
                       ! (Angstroms and Degrees)  !
 ----------------------                            ----------------------
 !      Name          Value   Derivative information (Atomic Units)     !
 ------------------------------------------------------------------------
 !       d1          1.537    Frozen                                    !
 !       a1        111.6755   Frozen                                    !
 !       t1        107.3853   Frozen                                    !
 !       d2          1.0932   Frozen                                    !
 !       a2        104.4879   Frozen                                    !
 !       t2       -142.1991   Frozen                                    !
 !       d3          1.104    Frozen                                    !
 !       d4          1.0894   Frozen                                    !
 !       a3        113.9727   Frozen                                    !
 !       d5          1.0965   Frozen                                    !
 !       a4        106.052    Frozen                                    !
 !       t3        179.1106   Frozen                                    !
 !       d6          1.0964   Frozen                                    !
 !       a5        114.5745   Frozen                                    !
 !       t4        113.4427   Frozen                                    !
 !       d7          1.0942   Frozen                                    !
 !       a6        114.4268   Frozen                                    !
 !       t5       -123.1161   Frozen                                    !
 ------------------------------------------------------------------------
 Trust Radius=3.00D-01 FncErr=1.00D-07 GrdErr=1.00D-07
 Number of steps in this run=   2 maximum allowed number of steps=   2.
 GradGradGradGradGradGradGradGradGradGradGradGradGradGradGradGradGradGrad

 Leave Link  103 at Wed May 26 19:17:37 2021, MaxMem=   13107200 cpu:       0.0
 (Enter /programs/64bit/g09/g09-gfortran/bin/l202.exe)
                          Input orientation:                          
 ---------------------------------------------------------------------
 Center     Atomic      Atomic             Coordinates (Angstroms)
 Number     Number       Type             X           Y           Z
 ---------------------------------------------------------------------
      1          6           0        0.000000    0.000000    0.000000
      2          6           0        0.000000    0.000000    1.536958
      3          1           0        1.015946    0.000000   -0.403790
      4          1           0       -0.319385   -1.020076   -0.276197
      5          1           0       -0.786543    0.610125   -0.442630
      6          1           0       -1.053614    0.016357    1.840149
      7          1           0        0.382439   -0.920865    1.992940
      8          1           0        0.557193    0.825902    1.989454
 ---------------------------------------------------------------------
                    Distance matrix (angstroms):
                    1          2          3          4          5
     1  C    0.000000
     2  C    1.536958   0.000000
     3  H    1.093249   2.190582   0.000000
     4  H    1.104014   2.104779   1.685213   0.000000
     5  H    1.089414   2.215777   1.903346   1.703964   0.000000
     6  H    2.120500   1.096492   3.052640   2.468240   2.373809
     7  H    2.228466   1.096436   2.644549   2.377263   3.105229
     8  H    2.224973   1.094226   2.572972   3.051098   2.786973
                    6          7          8
     6  H    0.000000
     7  H    1.721621   0.000000
     8  H    1.808964   1.755491   0.000000
 Symmetry turned off by external request.
 Stoichiometry    C2H6
 Framework group  C1[X(C2H6)]
 Deg. of freedom    18
 Full point group                 C1      NOp   1
 Rotational constants (GHZ):     80.2323289     20.0115783     19.6906966
 Leave Link  202 at Wed May 26 19:17:38 2021, MaxMem=   13107200 cpu:       0.0
 (Enter /programs/64bit/g09/g09-gfortran/bin/l301.exe)
 Standard basis: 6-31+G(d,p) (6D, 7F)
 Ernie: Thresh=  0.10000D-02 Tol=  0.10000D-05 Strict=F.
 Integral buffers will be    131072 words long.
 Raffenetti 2 integral format.
 Two-electron integral symmetry is turned off.
    68 basis functions,   106 primitive gaussians,    68 cartesian basis functions
     9 alpha electrons        9 beta electrons
       nuclear repulsion energy        42.0992728868 Hartrees.
 IExCor=  402 DFT=T Ex+Corr=B3LYP ExCW=0 ScaHFX=  0.200000
 ScaDFX=  0.800000  0.720000  1.000000  0.810000 ScalE2=  1.000000  1.000000
 IRadAn=      0 IRanWt=     -1 IRanGd=            0 ICorTp=0
 NAtoms=    8 NActive=    8 NUniq=    8 SFac= 7.50D-01 NAtFMM=   80 NAOKFM=F Big=F
 Leave Link  301 at Wed May 26 19:17:38 2021, MaxMem=   13107200 cpu:       0.0
 (Enter /programs/64bit/g09/g09-gfortran/bin/l302.exe)
 NPDir=0 NMtPBC=     1 NCelOv=     1 NCel=       1 NClECP=     1 NCelD=      1
         NCelK=      1 NCelE2=     1 NClLst=     1 CellRange=     0.0.
 One-electron integrals computed using PRISM.
 NBasis=    68 RedAO= T  NBF=    68
 NBsUse=    68 1.00D-06 NBFU=    68
 Precomputing XC quadrature grid using
 IXCGrd= 2 IRadAn=           0 IRanWt=          -1 IRanGd=           0 AccXCQ= 1.00D-10.
 NRdTot=     510 NPtTot=       65100 NUsed=       68787 NTot=       68819
 NSgBfM=    68    68    68    68    68 NAtAll=     8     8.
 Leave Link  302 at Wed May 26 19:17:38 2021, MaxMem=   13107200 cpu:       0.1
 (Enter /programs/64bit/g09/g09-gfortran/bin/l303.exe)
 DipDrv:  MaxL=1.
 Leave Link  303 at Wed May 26 19:17:38 2021, MaxMem=   13107200 cpu:       0.0
 (Enter /programs/64bit/g09/g09-gfortran/bin/l401.exe)
 Harris functional with IExCor=  402 diagonalized for initial guess.
 ExpMin= 4.38D-02 ExpMax= 3.05D+03 ExpMxC= 4.57D+02 IAcc=2 IRadAn=         0 AccDes= 0.00D+00
 HarFok:  IExCor=  402 AccDes= 0.00D+00 IRadAn=         0 IDoV= 1
 ScaDFX=  1.000000  1.000000  1.000000  1.000000
 FoFCou: FMM=F IPFlag=           0 FMFlag=      100000 FMFlg1=           0
         NFxFlg=           0 DoJE=T BraDBF=F KetDBF=T FulRan=T
         Omega=  0.000000  0.000000  1.000000  0.000000  0.000000 ICntrl=     500 IOpCl=  0
         NMat0=    1 NMatS0=    1 NMatT0=    0 NMatD0=    1 NMtDS0=    0 NMtDT0=    0
         I1Cent=           4 NGrid=           0.
 Symmetry not used in FoFCou.
 Harris En= -79.8888626243405    
 Leave Link  401 at Wed May 26 19:17:38 2021, MaxMem=   13107200 cpu:       0.6
 (Enter /programs/64bit/g09/g09-gfortran/bin/l502.exe)
 Closed shell SCF:
 Requested convergence on RMS density matrix=1.00D-08 within 128 cycles.
 Requested convergence on MAX density matrix=1.00D-06.
 Requested convergence on             energy=1.00D-06.
 No special actions if energy rises.
 Using DIIS extrapolation, IDIIS=  1040.
 Two-electron integral symmetry not used.
        68702 words used for storage of precomputed grid.
 Keep R1 ints in memory in canonical form, NReq=3743087.
 IEnd=      101552 IEndB=      101552 NGot=    13107200 MDV=    10273922
 LenX=    10273922 LenY=    10268857
 Symmetry not used in FoFDir.
 MinBra= 0 MaxBra= 2 Meth= 1.
 IRaf=       0 NMat=   1 IRICut=       1 DoRegI=T DoRafI=F ISym2E= 0 JSym2E=0.

 Cycle   1  Pass 1  IDiag  1:
 E= -79.7007527815377    
 DIIS: error= 4.00D-02 at cycle   1 NSaved=   1.
 NSaved= 1 IEnMin= 1 EnMin= -79.7007527815377     IErMin= 1 ErrMin= 4.00D-02
 ErrMax= 4.00D-02 EMaxC= 1.00D-01 BMatC= 1.15D-01 BMatP= 1.15D-01
 IDIUse=3 WtCom= 6.00D-01 WtEn= 4.00D-01
 Coeff-Com:  0.100D+01
 Coeff-En:   0.100D+01
 Coeff:      0.100D+01
 Gap=     0.265 Goal=   None    Shift=    0.000
 GapD=    0.265 DampG=1.000 DampE=0.500 DampFc=0.5000 IDamp=-1.
 Damping current iteration by 5.00D-01
 RMSDP=9.74D-03 MaxDP=1.43D-01              OVMax= 2.04D-01

 Cycle   2  Pass 1  IDiag  1:
 E= -79.7547785864180     Delta-E=       -0.054025804880 Rises=F Damp=T
 DIIS: error= 1.13D-02 at cycle   2 NSaved=   2.
 NSaved= 2 IEnMin= 2 EnMin= -79.7547785864180     IErMin= 2 ErrMin= 1.13D-02
 ErrMax= 1.13D-02 EMaxC= 1.00D-01 BMatC= 4.77D-03 BMatP= 1.15D-01
 IDIUse=3 WtCom= 8.87D-01 WtEn= 1.13D-01
 Coeff-Com:  0.112D+00 0.888D+00
 Coeff-En:   0.192D+00 0.808D+00
 Coeff:      0.121D+00 0.879D+00
 Gap=     0.377 Goal=   None    Shift=    0.000
 RMSDP=1.35D-03 MaxDP=1.12D-02 DE=-5.40D-02 OVMax= 1.19D-01

 Cycle   3  Pass 1  IDiag  1:
 E= -79.8317186069519     Delta-E=       -0.076940020534 Rises=F Damp=F
 DIIS: error= 1.78D-03 at cycle   3 NSaved=   3.
 NSaved= 3 IEnMin= 3 EnMin= -79.8317186069519     IErMin= 3 ErrMin= 1.78D-03
 ErrMax= 1.78D-03 EMaxC= 1.00D-01 BMatC= 1.87D-04 BMatP= 4.77D-03
 IDIUse=3 WtCom= 9.82D-01 WtEn= 1.78D-02
 Coeff-Com:  0.849D-02 0.122D+00 0.869D+00
 Coeff-En:   0.000D+00 0.000D+00 0.100D+01
 Coeff:      0.834D-02 0.120D+00 0.871D+00
 Gap=     0.348 Goal=   None    Shift=    0.000
 RMSDP=2.30D-04 MaxDP=2.10D-03 DE=-7.69D-02 OVMax= 4.59D-03

 Cycle   4  Pass 1  IDiag  1:
 E= -79.8318832781351     Delta-E=       -0.000164671183 Rises=F Damp=F
 DIIS: error= 4.08D-04 at cycle   4 NSaved=   4.
 NSaved= 4 IEnMin= 4 EnMin= -79.8318832781351     IErMin= 4 ErrMin= 4.08D-04
 ErrMax= 4.08D-04 EMaxC= 1.00D-01 BMatC= 1.17D-05 BMatP= 1.87D-04
 IDIUse=3 WtCom= 9.96D-01 WtEn= 4.08D-03
 Coeff-Com: -0.517D-03-0.495D-02 0.189D+00 0.816D+00
 Coeff-En:   0.000D+00 0.000D+00 0.000D+00 0.100D+01
 Coeff:     -0.515D-03-0.493D-02 0.188D+00 0.817D+00
 Gap=     0.348 Goal=   None    Shift=    0.000
 RMSDP=5.08D-05 MaxDP=4.31D-04 DE=-1.65D-04 OVMax= 1.13D-03

 Cycle   5  Pass 1  IDiag  1:
 E= -79.8318946234051     Delta-E=       -0.000011345270 Rises=F Damp=F
 DIIS: error= 4.22D-05 at cycle   5 NSaved=   5.
 NSaved= 5 IEnMin= 5 EnMin= -79.8318946234051     IErMin= 5 ErrMin= 4.22D-05
 ErrMax= 4.22D-05 EMaxC= 1.00D-01 BMatC= 1.55D-07 BMatP= 1.17D-05
 IDIUse=1 WtCom= 1.00D+00 WtEn= 0.00D+00
 Coeff-Com:  0.122D-03-0.205D-02 0.498D-01 0.232D+00 0.720D+00
 Coeff:      0.122D-03-0.205D-02 0.498D-01 0.232D+00 0.720D+00
 Gap=     0.348 Goal=   None    Shift=    0.000
 RMSDP=7.36D-06 MaxDP=1.12D-04 DE=-1.13D-05 OVMax= 1.58D-04

 Cycle   6  Pass 1  IDiag  1:
 E= -79.8318947617790     Delta-E=       -0.000000138374 Rises=F Damp=F
 DIIS: error= 2.59D-05 at cycle   6 NSaved=   6.
 NSaved= 6 IEnMin= 6 EnMin= -79.8318947617790     IErMin= 6 ErrMin= 2.59D-05
 ErrMax= 2.59D-05 EMaxC= 1.00D-01 BMatC= 2.92D-08 BMatP= 1.55D-07
 IDIUse=1 WtCom= 1.00D+00 WtEn= 0.00D+00
 Coeff-Com:  0.180D-03-0.512D-03 0.426D-02 0.258D-01 0.315D+00 0.655D+00
 Coeff:      0.180D-03-0.512D-03 0.426D-02 0.258D-01 0.315D+00 0.655D+00
 Gap=     0.348 Goal=   None    Shift=    0.000
 RMSDP=2.27D-06 MaxDP=5.04D-05 DE=-1.38D-07 OVMax= 6.02D-05

 Cycle   7  Pass 1  IDiag  1:
 E= -79.8318947889826     Delta-E=       -0.000000027204 Rises=F Damp=F
 DIIS: error= 5.62D-06 at cycle   7 NSaved=   7.
 NSaved= 7 IEnMin= 7 EnMin= -79.8318947889826     IErMin= 7 ErrMin= 5.62D-06
 ErrMax= 5.62D-06 EMaxC= 1.00D-01 BMatC= 1.73D-09 BMatP= 2.92D-08
 IDIUse=1 WtCom= 1.00D+00 WtEn= 0.00D+00
 Coeff-Com:  0.754D-04-0.872D-04-0.184D-02-0.592D-02 0.808D-01 0.277D+00
 Coeff-Com:  0.650D+00
 Coeff:      0.754D-04-0.872D-04-0.184D-02-0.592D-02 0.808D-01 0.277D+00
 Coeff:      0.650D+00
 Gap=     0.348 Goal=   None    Shift=    0.000
 RMSDP=6.24D-07 MaxDP=9.33D-06 DE=-2.72D-08 OVMax= 1.36D-05

 Cycle   8  Pass 1  IDiag  1:
 E= -79.8318947907712     Delta-E=       -0.000000001789 Rises=F Damp=F
 DIIS: error= 1.86D-07 at cycle   8 NSaved=   8.
 NSaved= 8 IEnMin= 8 EnMin= -79.8318947907712     IErMin= 8 ErrMin= 1.86D-07
 ErrMax= 1.86D-07 EMaxC= 1.00D-01 BMatC= 4.14D-12 BMatP= 1.73D-09
 IDIUse=1 WtCom= 1.00D+00 WtEn= 0.00D+00
 Coeff-Com:  0.875D-07 0.135D-06-0.188D-03-0.735D-03 0.679D-03 0.101D-01
 Coeff-Com:  0.576D-01 0.933D+00
 Coeff:      0.875D-07 0.135D-06-0.188D-03-0.735D-03 0.679D-03 0.101D-01
 Coeff:      0.576D-01 0.933D+00
 Gap=     0.348 Goal=   None    Shift=    0.000
 RMSDP=4.12D-08 MaxDP=4.88D-07 DE=-1.79D-09 OVMax= 7.17D-07

 Cycle   9  Pass 1  IDiag  1:
 E= -79.8318947907762     Delta-E=       -0.000000000005 Rises=F Damp=F
 DIIS: error= 2.57D-08 at cycle   9 NSaved=   9.
 NSaved= 9 IEnMin= 9 EnMin= -79.8318947907762     IErMin= 9 ErrMin= 2.57D-08
 ErrMax= 2.57D-08 EMaxC= 1.00D-01 BMatC= 6.54D-14 BMatP= 4.14D-12
 IDIUse=1 WtCom= 1.00D+00 WtEn= 0.00D+00
 Coeff-Com: -0.884D-06 0.702D-06-0.140D-04-0.702D-04-0.752D-03-0.104D-02
 Coeff-Com:  0.417D-02 0.166D+00 0.832D+00
 Coeff:     -0.884D-06 0.702D-06-0.140D-04-0.702D-04-0.752D-03-0.104D-02
 Coeff:      0.417D-02 0.166D+00 0.832D+00
 Gap=     0.348 Goal=   None    Shift=    0.000
 RMSDP=5.30D-09 MaxDP=6.31D-08 DE=-4.97D-12 OVMax= 9.06D-08

 SCF Done:  E(RB3LYP) =  -79.8318947908     A.U. after    9 cycles
             Convg  =    0.5296D-08             -V/T =  2.0109
 KE= 7.896962984327D+01 PE=-2.679172481901D+02 EE= 6.701645066924D+01
 Leave Link  502 at Wed May 26 19:17:43 2021, MaxMem=   13107200 cpu:       5.0
 (Enter /programs/64bit/g09/g09-gfortran/bin/l601.exe)
 Copying SCF densities to generalized density rwf, IOpCl= 0 IROHF=0.

 **********************************************************************

            Population analysis using the SCF density.

 **********************************************************************

 Alpha  occ. eigenvalues --  -10.17897 -10.17786  -0.75405  -0.61773  -0.44646
 Alpha  occ. eigenvalues --   -0.42681  -0.37167  -0.34733  -0.33081
 Alpha virt. eigenvalues --    0.01685   0.03013   0.05171   0.05533   0.08010
 Alpha virt. eigenvalues --    0.08823   0.09100   0.14265   0.15056   0.20020
 Alpha virt. eigenvalues --    0.20651   0.23943   0.25338   0.29333   0.32919
 Alpha virt. eigenvalues --    0.62016   0.64226   0.64867   0.67309   0.68340
 Alpha virt. eigenvalues --    0.70022   0.88677   0.91990   0.94281   0.99872
 Alpha virt. eigenvalues --    1.01406   1.09911   1.10304   1.30936   1.34107
 Alpha virt. eigenvalues --    1.46433   1.65692   1.70479   1.88233   1.93382
 Alpha virt. eigenvalues --    2.03084   2.08798   2.11081   2.17129   2.17981
 Alpha virt. eigenvalues --    2.24975   2.28923   2.37879   2.45673   2.53250
 Alpha virt. eigenvalues --    2.67203   2.73581   2.77039   2.82354   2.85820
 Alpha virt. eigenvalues --    2.94052   3.21788   3.29509   3.37831   3.41395
 Alpha virt. eigenvalues --    3.48572   3.55312   4.34096   4.58830
          Condensed to atoms (all electrons):
              1          2          3          4          5          6
     1  C    5.098533   0.259230   0.398709   0.411414   0.409052  -0.048910
     2  C    0.259230   5.105241  -0.039000  -0.062063  -0.042521   0.403105
     3  H    0.398709  -0.039000   0.547372  -0.037658  -0.016855   0.004730
     4  H    0.411414  -0.062063  -0.037658   0.589281  -0.036896  -0.003111
     5  H    0.409052  -0.042521  -0.016855  -0.036896   0.538342  -0.006731
     6  H   -0.048910   0.403105   0.004730  -0.003111  -0.006731   0.567013
     7  H   -0.044270   0.408835  -0.001018  -0.008833   0.004069  -0.033424
     8  H   -0.035960   0.396987  -0.005350   0.005109  -0.001527  -0.024485
              7          8
     1  C   -0.044270  -0.035960
     2  C    0.408835   0.396987
     3  H   -0.001018  -0.005350
     4  H   -0.008833   0.005109
     5  H    0.004069  -0.001527
     6  H   -0.033424  -0.024485
     7  H    0.562314  -0.032574
     8  H   -0.032574   0.551792
 Mulliken atomic charges:
              1
     1  C   -0.447798
     2  C   -0.429815
     3  H    0.149071
     4  H    0.142756
     5  H    0.153067
     6  H    0.141813
     7  H    0.144900
     8  H    0.146006
 Sum of Mulliken atomic charges =   0.00000
 Mulliken charges with hydrogens summed into heavy atoms:
              1
     1  C   -0.002905
     2  C    0.002905
 Sum of Mulliken charges with hydrogens summed into heavy atoms =   0.00000
 Electronic spatial extent (au):  <R**2>=            149.1467
 Charge=              0.0000 electrons
 Dipole moment (field-independent basis, Debye):
    X=             -0.0639    Y=             -0.1611    Z=             -0.0083  Tot=              0.1735
 Quadrupole moment (field-independent basis, Debye-Ang):
   XX=            -14.7652   YY=            -15.4093   ZZ=            -15.8303
   XY=             -0.1389   XZ=              0.1621   YZ=             -0.1467
 Traceless Quadrupole moment (field-independent basis, Debye-Ang):
   XX=              0.5698   YY=             -0.0744   ZZ=             -0.4954
   XY=             -0.1389   XZ=              0.1621   YZ=             -0.1467
 Octapole moment (field-independent basis, Debye-Ang**2):
  XXX=              0.2650  YYY=              0.7119  ZZZ=            -36.5319  XYY=              0.2711
  XXY=              0.6835  XXZ=            -11.9067  XZZ=              0.5731  YZZ=              0.0558
  YYZ=            -11.5241  XYZ=              0.4307
 Hexadecapole moment (field-independent basis, Debye-Ang**3):
 XXXX=            -31.3304 YYYY=            -31.3220 ZZZZ=           -155.2394 XXXY=             -0.2373
 XXXZ=             -0.8124 YYYX=              0.1589 YYYZ=              0.0478 ZZZX=              1.6470
 ZZZY=             -0.6461 XXYY=            -10.6395 XXZZ=            -30.0729 YYZZ=            -29.7058
 XXYZ=              0.1526 YYXZ=              1.1846 ZZXY=              0.4616
 N-N= 4.209927288681D+01 E-N=-2.679172477480D+02  KE= 7.896962984327D+01
 No NMR shielding tensors so no spin-rotation constants.
 Leave Link  601 at Wed May 26 19:17:43 2021, MaxMem=   13107200 cpu:       0.0
 (Enter /programs/64bit/g09/g09-gfortran/bin/l701.exe)
 Compute integral first derivatives.
 ... and contract with generalized density number  0.
 Leave Link  701 at Wed May 26 19:17:43 2021, MaxMem=   13107200 cpu:       0.0
 (Enter /programs/64bit/g09/g09-gfortran/bin/l702.exe)
 L702 exits ... SP integral derivatives will be done elsewhere.
 Leave Link  702 at Wed May 26 19:17:43 2021, MaxMem=   13107200 cpu:       0.0
 (Enter /programs/64bit/g09/g09-gfortran/bin/l703.exe)
 Compute integral first derivatives, UseDBF=F ICtDFT=           0.
 Integral derivatives from FoFDir, PRISM(SPDF).
 Calling FoFJK, ICntrl=      2127 FMM=F ISym2X=0 I1Cent= 0 IOpClX= 0 NMat=1 NMatS=1 NMatT=0.
 FoFCou: FMM=F IPFlag=           0 FMFlag=      100000 FMFlg1=         800
         NFxFlg=           0 DoJE=F BraDBF=F KetDBF=F FulRan=T
         Omega=  0.000000  0.000000  1.000000  0.000000  0.000000 ICntrl=    2127 IOpCl=  0
         NMat0=    1 NMatS0=    1 NMatT0=    0 NMatD0=    1 NMtDS0=    0 NMtDT0=    0
         I1Cent=           0 NGrid=           0.
 Symmetry not used in FoFCou.
 Leave Link  703 at Wed May 26 19:17:45 2021, MaxMem=   13107200 cpu:       1.2
 (Enter /programs/64bit/g09/g09-gfortran/bin/l716.exe)
 Dipole        =-2.51223852D-02-6.33837534D-02-3.25183564D-03
 -------------------------------------------------------------------
 Center     Atomic                   Forces (Hartrees/Bohr)
 Number     Number              X              Y              Z
 -------------------------------------------------------------------
      1        6           0.001035166   -0.043417647    0.009743040
      2        6          -0.010356253    0.001016809    0.001793361
      3        1          -0.002620156    0.018304345   -0.006585042
      4        1          -0.002692592    0.000490636   -0.001537853
      5        1           0.011949009    0.014144194   -0.002927525
      6        1           0.001523335    0.007085562    0.006979112
      7        1           0.005536422   -0.000965628   -0.006756380
      8        1          -0.004374931    0.003341730   -0.000708712
 -------------------------------------------------------------------
 Cartesian Forces:  Max     0.043417647 RMS     0.011270184
 -----------------------------------------------------------------------------------------------
                       Internal Coordinate Forces (Hartree/Bohr or radian)
  Cent   Atom   N1       Length/X         N2         Alpha/Y        N3         Beta/Z          J
 -----------------------------------------------------------------------------------------------
      1  C 
      2  C        1   0.001307(     1)
      3  H        1  -0.000003(     2)      2   0.014642(     8)
      4  H        1   0.000710(     3)      2   0.002931(     9)      3   0.005487(    14)     0
      5  H        1   0.000484(     4)      2   0.006153(    10)      3   0.034800(    15)     0
      6  H        2   0.000572(     5)      1   0.014707(    11)      3   0.005129(    16)     0
      7  H        2  -0.000068(     6)      1  -0.015329(    12)      6   0.008937(    17)     0
      8  H        2   0.000001(     7)      1  -0.001611(    13)      6   0.010347(    18)     0
 -----------------------------------------------------------------------------------------------
 Internal  Forces:  Max     0.034800056 RMS     0.010984445
 Force constants in Cartesian coordinates: 
                1             2             3             4             5 
      1  0.702758D+00
      2 -0.524261D-01  0.587266D+00
      3  0.364078D-02 -0.156467D-01  0.630898D+00
      4 -0.942988D-01  0.277422D-02  0.187117D-02  0.635962D+00
      5  0.275669D-02 -0.888788D-01  0.840635D-02  0.244300D-01  0.631767D+00
      6 -0.245125D-02 -0.172029D-02 -0.287901D+00  0.268521D-01 -0.431639D-02
      7 -0.305152D+00  0.442872D-02  0.869598D-01  0.992180D-02  0.198610D-03
      8  0.151531D-01 -0.734368D-01  0.660906D-02  0.709491D-03  0.261594D-02
      9  0.987459D-01  0.111428D-01 -0.125606D+00  0.249635D-01  0.499708D-03
     10 -0.929533D-01 -0.677379D-01 -0.208324D-01  0.107536D-02  0.183450D-02
     11 -0.686191D-01 -0.292519D+00 -0.614335D-01  0.173692D-02  0.603703D-02
     12 -0.234816D-01 -0.690409D-01 -0.814388D-01 -0.765848D-02 -0.244179D-01
     13 -0.224993D+00  0.112194D+00 -0.716393D-01  0.737219D-02 -0.397290D-02
     14  0.102368D+00 -0.150814D+00  0.620648D-01 -0.440797D-02  0.613178D-02
     15 -0.789050D-01  0.735449D-01 -0.135953D+00 -0.191762D-01  0.155118D-01
     16  0.736872D-02 -0.120407D-03  0.000000D+00 -0.316908D+00  0.286281D-02
     17 -0.379025D-03  0.875554D-03  0.000000D+00  0.563527D-03 -0.717051D-01
     18  0.256273D-01 -0.465660D-03  0.000000D+00  0.827546D-01 -0.456516D-02
     19  0.295197D-02 -0.372729D-02  0.000000D+00 -0.101869D+00  0.723882D-01
     20 -0.345689D-02  0.954460D-02  0.000000D+00  0.760674D-01 -0.260829D+00
     21 -0.945713D-02  0.224017D-01  0.000000D+00 -0.467690D-01  0.100777D+00
     22  0.431805D-02  0.461436D-02  0.000000D+00 -0.141255D+00 -0.100498D+00
     23  0.460320D-02  0.796274D-02  0.000000D+00 -0.101874D+00 -0.225140D+00
     24 -0.137190D-01 -0.202157D-01  0.000000D+00 -0.628377D-01 -0.918955D-01
                6             7             8             9            10 
      6  0.642465D+00
      7  0.000000D+00  0.306115D+00
      8  0.000000D+00 -0.208280D-02  0.542138D-01
      9  0.000000D+00 -0.963240D-01 -0.524038D-02  0.102045D+00
     10  0.000000D+00 -0.421677D-02 -0.311265D-01 -0.106095D-01  0.827336D-01
     11  0.000000D+00  0.759648D-03  0.578073D-02  0.191129D-02  0.724001D-01
     12  0.000000D+00  0.207053D-02  0.146436D-01  0.520950D-02  0.213349D-01
     13  0.000000D+00 -0.666761D-02  0.174073D-01 -0.167759D-01  0.134161D-01
     14  0.000000D+00 -0.330417D-02  0.108241D-01 -0.831338D-02  0.246278D-01
     15  0.000000D+00  0.729367D-02 -0.160123D-01  0.183511D-01  0.101070D-01
     16  0.698232D-01  0.000000D+00  0.112498D-04  0.000000D+00  0.102039D-04
     17 -0.366853D-02  0.000000D+00  0.724647D-03  0.000000D+00  0.657279D-03
     18 -0.978918D-01  0.000000D+00  0.000000D+00  0.000000D+00  0.000000D+00
     19 -0.402395D-01  0.000000D+00 -0.707314D-03  0.000000D+00 -0.641557D-03
     20  0.897067D-01  0.000000D+00 -0.293750D-03  0.000000D+00 -0.266441D-03
     21 -0.125879D+00  0.000000D+00  0.000000D+00  0.000000D+00  0.000000D+00
     22 -0.539845D-01  0.000000D+00  0.635443D-03  0.000000D+00  0.576368D-03
     23 -0.800015D-01  0.000000D+00 -0.428700D-03  0.000000D+00 -0.388846D-03
     24 -0.130793D+00  0.000000D+00  0.000000D+00  0.000000D+00  0.000000D+00
               11            12            13            14            15 
     11  0.292326D+00
     12  0.643602D-01  0.700487D-01
     13 -0.629481D-02  0.773464D-02  0.210834D+00
     14 -0.116248D-01  0.144550D-01 -0.119333D+00  0.145485D+00
     15 -0.483796D-02  0.618064D-02  0.806806D-01 -0.682065D-01  0.111421D+00
     16 -0.319484D-05  0.000000D+00 -0.703726D-05 -0.907209D-05  0.000000D+00
     17 -0.205793D-03  0.000000D+00 -0.453300D-03 -0.584372D-03  0.000000D+00
     18  0.000000D+00  0.000000D+00  0.000000D+00  0.000000D+00  0.000000D+00
     19  0.200871D-03  0.000000D+00  0.442457D-03  0.570393D-03  0.000000D+00
     20  0.834224D-04  0.000000D+00  0.183754D-03  0.236887D-03  0.000000D+00
     21  0.000000D+00  0.000000D+00  0.000000D+00  0.000000D+00  0.000000D+00
     22 -0.180460D-03  0.000000D+00 -0.397499D-03 -0.512435D-03  0.000000D+00
     23  0.121747D-03  0.000000D+00  0.268171D-03  0.345713D-03  0.000000D+00
     24  0.000000D+00  0.000000D+00  0.000000D+00  0.000000D+00  0.000000D+00
               16            17            18            19            20 
     16  0.319181D+00
     17 -0.382589D-02  0.551041D-01
     18 -0.746808D-01  0.211398D-02  0.810950D-01
     19 -0.433078D-02  0.290979D-01 -0.166196D-01  0.906377D-01
     20 -0.868327D-03  0.602997D-02 -0.334281D-02 -0.821185D-01  0.258398D+00
     21  0.187868D-02 -0.122272D-01  0.718820D-02  0.439690D-01 -0.975244D-01
     22 -0.531381D-02 -0.256605D-01 -0.170815D-01  0.128097D-01  0.104590D-01
     23  0.195283D-02  0.976104D-02  0.625966D-02 -0.157042D-01 -0.131707D-01
     24  0.297896D-02  0.137817D-01  0.960860D-02  0.128901D-01  0.111604D-01
               21            22            23            24 
     21  0.106963D+00
     22  0.103785D-01  0.129262D+00
     23 -0.134272D-01  0.111143D+00  0.220548D+00
     24  0.117276D-01  0.606876D-01  0.871691D-01  0.109457D+00
 Force constants in internal coordinates: 
                1             2             3             4             5 
      1  0.287901D+00
      2  0.000000D+00  0.344399D+00
      3  0.000000D+00  0.000000D+00  0.332421D+00
      4  0.000000D+00  0.000000D+00  0.000000D+00  0.348805D+00
      5  0.000000D+00  0.000000D+00  0.000000D+00  0.000000D+00  0.340731D+00
      6  0.000000D+00  0.000000D+00  0.000000D+00  0.000000D+00  0.000000D+00
      7  0.000000D+00  0.000000D+00  0.000000D+00  0.000000D+00  0.000000D+00
      8  0.000000D+00  0.000000D+00  0.000000D+00  0.000000D+00  0.000000D+00
      9  0.000000D+00  0.000000D+00  0.000000D+00  0.000000D+00  0.000000D+00
     10  0.000000D+00  0.000000D+00  0.000000D+00  0.000000D+00  0.000000D+00
     11  0.000000D+00  0.000000D+00  0.000000D+00  0.000000D+00  0.000000D+00
     12  0.000000D+00  0.000000D+00  0.000000D+00  0.000000D+00  0.000000D+00
     13  0.000000D+00  0.000000D+00  0.000000D+00  0.000000D+00  0.000000D+00
     14  0.000000D+00  0.000000D+00  0.000000D+00  0.000000D+00  0.000000D+00
     15  0.000000D+00  0.000000D+00  0.000000D+00  0.000000D+00  0.000000D+00
     16  0.000000D+00  0.000000D+00  0.000000D+00  0.000000D+00  0.000000D+00
     17  0.000000D+00  0.000000D+00  0.000000D+00  0.000000D+00  0.000000D+00
     18  0.000000D+00  0.000000D+00  0.000000D+00  0.000000D+00  0.000000D+00
                6             7             8             9            10 
      6  0.340793D+00
      7  0.000000D+00  0.343288D+00
      8  0.000000D+00  0.000000D+00  0.272139D+00
      9  0.000000D+00  0.000000D+00  0.249557D-01  0.228646D+00
     10  0.000000D+00  0.000000D+00  0.919173D-01  0.300062D-01  0.273303D+00
     11  0.000000D+00  0.000000D+00  0.000000D+00  0.000000D+00  0.000000D+00
     12  0.000000D+00  0.000000D+00  0.000000D+00  0.000000D+00  0.000000D+00
     13  0.000000D+00  0.000000D+00  0.000000D+00  0.000000D+00  0.000000D+00
     14  0.000000D+00  0.000000D+00 -0.480312D-01  0.491729D-02  0.504746D-01
     15  0.000000D+00  0.000000D+00  0.704704D-01 -0.655126D-01  0.188276D-01
     16  0.000000D+00  0.000000D+00  0.000000D+00  0.000000D+00  0.000000D+00
     17  0.000000D+00  0.000000D+00  0.000000D+00  0.000000D+00  0.000000D+00
     18  0.000000D+00  0.000000D+00  0.000000D+00  0.000000D+00  0.000000D+00
               11            12            13            14            15 
     11  0.255892D+00
     12  0.353113D-01  0.249272D+00
     13  0.470508D-01  0.606818D-01  0.261766D+00
     14  0.000000D+00  0.000000D+00  0.000000D+00  0.245449D+00
     15  0.000000D+00  0.000000D+00  0.000000D+00 -0.115190D+00  0.192676D+00
     16  0.282006D-04 -0.378279D-04  0.725427D-04  0.831194D-02  0.831194D-02
     17 -0.675668D-01  0.137446D-01  0.692605D-01  0.277065D-02  0.277065D-02
     18  0.716930D-01 -0.691158D-01 -0.666066D-02  0.277065D-02  0.277065D-02
               16            17            18 
     16  0.249550D-01
     17  0.825644D-02  0.202884D+00
     18  0.818320D-02 -0.853851D-01  0.194091D+00
 Leave Link  716 at Wed May 26 19:17:45 2021, MaxMem=   13107200 cpu:       0.0
 (Enter /programs/64bit/g09/g09-gfortran/bin/l103.exe)

 GradGradGradGradGradGradGradGradGradGradGradGradGradGradGradGradGradGrad
 Berny optimization.
 Search for a local minimum.
 Step number   1 out of a maximum of    2
 All quantities printed in internal units (Hartrees-Bohrs-Radians)
 Second derivative matrix not updated -- first step.
 The second derivative matrix:
                          d1        a1        t1        d2        a2
           d1           0.28790
           a1           0.00000   0.27214
           t1          -0.00000  -0.04803   0.24545
           d2           0.00000  -0.00000   0.00000   0.34440
           a2           0.00000   0.02496   0.00492  -0.00000   0.22865
           t2           0.00000   0.07047  -0.11519   0.00000  -0.06551
           d3          -0.00000  -0.00000  -0.00000  -0.00000  -0.00000
           d4          -0.00000   0.00000   0.00000   0.00000   0.00000
           a3           0.00000   0.09192   0.05047   0.00000   0.03001
           d5           0.00000   0.00000   0.00000   0.00000  -0.00000
           a4           0.00000   0.00000  -0.00000   0.00000   0.00000
           t3          -0.00000   0.00000   0.00831   0.00000   0.00000
           d6           0.00000   0.00000   0.00000   0.00000   0.00000
           a5           0.00000   0.00000  -0.00000   0.00000  -0.00000
           t4           0.00000   0.00000   0.00277   0.00000   0.00000
           d7           0.00000   0.00000   0.00000   0.00000  -0.00000
           a6           0.00000   0.00000  -0.00000   0.00000   0.00000
           t5          -0.00000   0.00000   0.00277   0.00000   0.00000
                          t2        d3        d4        a3        d5
           t2           0.19268
           d3           0.00000   0.33242
           d4          -0.00000  -0.00000   0.34880
           a3           0.01883  -0.00000   0.00000   0.27330
           d5           0.00000   0.00000   0.00000  -0.00000   0.34073
           a4           0.00000  -0.00000   0.00000  -0.00000   0.00000
           t3           0.00831  -0.00000  -0.00000   0.00000   0.00000
           d6          -0.00000   0.00000   0.00000  -0.00000  -0.00000
           a5           0.00000  -0.00000  -0.00000   0.00000  -0.00000
           t4           0.00277  -0.00000   0.00000  -0.00000  -0.00000
           d7          -0.00000   0.00000  -0.00000  -0.00000  -0.00000
           a6           0.00000  -0.00000   0.00000  -0.00000  -0.00000
           t5           0.00277  -0.00000  -0.00000  -0.00000   0.00000
                          a4        t3        d6        a5        t4
           a4           0.25589
           t3           0.00003   0.02495
           d6           0.00000  -0.00000   0.34079
           a5           0.03531  -0.00004   0.00000   0.24927
           t4          -0.06757   0.00826  -0.00000   0.01374   0.20288
           d7           0.00000   0.00000   0.00000   0.00000   0.00000
           a6           0.04705   0.00007   0.00000   0.06068   0.06926
           t5           0.07169   0.00818  -0.00000  -0.06912  -0.08539
                          d7        a6        t5
           d7           0.34329
           a6           0.00000   0.26177
           t5           0.00000  -0.00666   0.19409
     Eigenvalues --- 1000.000001000.000001000.000001000.000001000.00000
     Eigenvalues --- 1000.000001000.000001000.000001000.000001000.00000
     Eigenvalues --- 1000.000001000.000001000.000001000.000001000.00000
     Eigenvalues --- 1000.000001000.000001000.00000
 Angle between quadratic step and forces=  90.00 degrees.
 Linear search not attempted -- first point.
 Variable       Old X    -DE/DX   Delta X   Delta X   Delta X     New X
                                 (Linear)    (Quad)   (Total)
    d1        2.90443   0.00131   0.00000   0.00000   0.00000   2.90443
    a1        1.94910   0.01464   0.00000   0.00000   0.00000   1.94910
    t1        1.87423   0.00549   0.00000   0.00000   0.00000   1.87423
    d2        2.06594  -0.00000   0.00000   0.00000   0.00000   2.06594
    a2        1.82366   0.00293   0.00000   0.00000   0.00000   1.82366
    t2       -2.48184   0.03480   0.00000   0.00000   0.00000  -2.48184
    d3        2.08628   0.00071   0.00000   0.00000   0.00000   2.08628
    d4        2.05869   0.00048   0.00000   0.00000   0.00000   2.05869
    a3        1.98920   0.00615   0.00000   0.00000   0.00000   1.98920
    d5        2.07207   0.00057   0.00000   0.00000   0.00000   2.07207
    a4        1.85096   0.01471   0.00000   0.00000   0.00000   1.85096
    t3        3.12607   0.00513   0.00000   0.00000   0.00000   3.12607
    d6        2.07196  -0.00007   0.00000   0.00000   0.00000   2.07196
    a5        1.99970  -0.01533   0.00000   0.00000   0.00000   1.99970
    t4        1.97995   0.00894   0.00000   0.00000   0.00000   1.97995
    d7        2.06779   0.00000   0.00000   0.00000   0.00000   2.06779
    a6        1.99712  -0.00161   0.00000   0.00000   0.00000   1.99712
    t5       -2.14878   0.01035   0.00000   0.00000   0.00000  -2.14878
         Item               Value     Threshold  Converged?
 Maximum Force            0.000000     0.000450     YES
 RMS     Force            0.000000     0.000300     YES
 Maximum Displacement     0.000000     0.001800     YES
 RMS     Displacement     0.000000     0.001200     YES
 Predicted change in Energy=-0.000000D+00
 Optimization completed.
    -- Stationary point found.
                       ----------------------------
                       !   Optimized Parameters   !
                       ! (Angstroms and Degrees)  !
 ----------------------                            ----------------------
 !      Name          Value   Derivative information (Atomic Units)     !
 ------------------------------------------------------------------------
 !       d1          1.537    -DE/DX =    0.0013                        !
 !       a1        111.6755   -DE/DX =    0.0146                        !
 !       t1        107.3853   -DE/DX =    0.0055                        !
 !       d2          1.0932   -DE/DX =    0.0                           !
 !       a2        104.4879   -DE/DX =    0.0029                        !
 !       t2       -142.1991   -DE/DX =    0.0348                        !
 !       d3          1.104    -DE/DX =    0.0007                        !
 !       d4          1.0894   -DE/DX =    0.0005                        !
 !       a3        113.9727   -DE/DX =    0.0062                        !
 !       d5          1.0965   -DE/DX =    0.0006                        !
 !       a4        106.052    -DE/DX =    0.0147                        !
 !       t3        179.1106   -DE/DX =    0.0051                        !
 !       d6          1.0964   -DE/DX =   -0.0001                        !
 !       a5        114.5745   -DE/DX =   -0.0153                        !
 !       t4        113.4427   -DE/DX =    0.0089                        !
 !       d7          1.0942   -DE/DX =    0.0                           !
 !       a6        114.4268   -DE/DX =   -0.0016                        !
 !       t5       -123.1161   -DE/DX =    0.0103                        !
 ------------------------------------------------------------------------
 GradGradGradGradGradGradGradGradGradGradGradGradGradGradGradGradGradGrad

 Leave Link  103 at Wed May 26 19:17:45 2021, MaxMem=   13107200 cpu:       0.0
 (Enter /programs/64bit/g09/g09-gfortran/bin/l9999.exe)
 1\1\GINC-MOLMOD\Force\RB3LYP\6-31+G(d,p)\C2H6\OSPITE\26-May-2021\1\\#p
  b3lyp/6-31+g(d,p) force nosym\\c2h6 molecule\\0,1\C\C,1,d1\H,1,d2,2,a
 1\H,1,d3,2,a2,3,t1,0\H,1,d4,2,a3,3,t2,0\H,2,d5,1,a4,3,t3,0\H,2,d6,1,a5
 ,6,t4,0\H,2,d7,1,a6,6,t5,0\\d1=1.53695795\a1=111.67545882\t1=107.38527
 341\d2=1.09324881\a2=104.48787391\t2=-142.19909746\d3=1.10401406\d4=1.
 08941385\a3=113.97267243\d5=1.09649183\a4=106.05204541\t3=179.11058187
 \d6=1.0964362\a5=114.57453137\t4=113.44271413\d7=1.09422588\a6=114.426
 82214\t5=-123.11606285\\Version=EM64L-G09RevA.02\HF=-79.8318948\RMSD=5
 .296e-09\RMSF=1.127e-02\Dipole=-0.0251224,-0.0633838,-0.0032518\Quadru
 pole=0.4236002,-0.0553079,-0.3682923,-0.1032377,0.1204934,-0.1090822\P
 G=C01 [X(C2H6)]\\@


 WOE UNTO THEM THAT CALL EVIL GOOD, AND GOOD EVIL      
 Job cpu time:  0 days  0 hours  0 minutes  7.0 seconds.
 File lengths (MBytes):  RWF=      5 Int=      0 D2E=      0 Chk=      1 Scr=      1
 Normal termination of Gaussian 09 at Wed May 26 19:17:45 2021.
