 Entering Gaussian System, Link 0=g09
 Input=c2h6_029.com
 Output=c2h6_029.log
 Initial command:
 /programs/64bit/g09/g09-gfortran/bin/l1.exe /data/scratch/Gau-6581.inp -scrdir=/data/scratch/
 Entering Link 1 = /programs/64bit/g09/g09-gfortran/bin/l1.exe PID=      6582.
  
 Copyright (c) 1988,1990,1992,1993,1995,1998,2003,2009, Gaussian, Inc.
                  All Rights Reserved.
  
 This is part of the Gaussian(R) 09 program.  It is based on
 the Gaussian(R) 03 system (copyright 2003, Gaussian, Inc.),
 the Gaussian(R) 98 system (copyright 1998, Gaussian, Inc.),
 the Gaussian(R) 94 system (copyright 1995, Gaussian, Inc.),
 the Gaussian 92(TM) system (copyright 1992, Gaussian, Inc.),
 the Gaussian 90(TM) system (copyright 1990, Gaussian, Inc.),
 the Gaussian 88(TM) system (copyright 1988, Gaussian, Inc.),
 the Gaussian 86(TM) system (copyright 1986, Carnegie Mellon
 University), and the Gaussian 82(TM) system (copyright 1983,
 Carnegie Mellon University). Gaussian is a federally registered
 trademark of Gaussian, Inc.
  
 This software contains proprietary and confidential information,
 including trade secrets, belonging to Gaussian, Inc.
  
 This software is provided under written license and may be
 used, copied, transmitted, or stored only in accord with that
 written license.
  
 The following legend is applicable only to US Government
 contracts under FAR:
  
                    RESTRICTED RIGHTS LEGEND
  
 Use, reproduction and disclosure by the US Government is
 subject to restrictions as set forth in subparagraphs (a)
 and (c) of the Commercial Computer Software - Restricted
 Rights clause in FAR 52.227-19.
  
 Gaussian, Inc.
 340 Quinnipiac St., Bldg. 40, Wallingford CT 06492
  
  
 ---------------------------------------------------------------
 Warning -- This program may not be used in any manner that
 competes with the business of Gaussian, Inc. or will provide
 assistance to any competitor of Gaussian, Inc.  The licensee
 of this program is prohibited from giving any competitor of
 Gaussian, Inc. access to this program.  By using this program,
 the user acknowledges that Gaussian, Inc. is engaged in the
 business of creating and licensing software in the field of
 computational chemistry and represents and warrants to the
 licensee that it is not a competitor of Gaussian, Inc. and that
 it will not use this program in any manner prohibited above.
 ---------------------------------------------------------------
  

 Cite this work as:
 Gaussian 09, Revision A.02,
 M. J. Frisch, G. W. Trucks, H. B. Schlegel, G. E. Scuseria, 
 M. A. Robb, J. R. Cheeseman, G. Scalmani, V. Barone, B. Mennucci, 
 G. A. Petersson, H. Nakatsuji, M. Caricato, X. Li, H. P. Hratchian, 
 A. F. Izmaylov, J. Bloino, G. Zheng, J. L. Sonnenberg, M. Hada, 
 M. Ehara, K. Toyota, R. Fukuda, J. Hasegawa, M. Ishida, T. Nakajima, 
 Y. Honda, O. Kitao, H. Nakai, T. Vreven, J. A. Montgomery, Jr., 
 J. E. Peralta, F. Ogliaro, M. Bearpark, J. J. Heyd, E. Brothers, 
 K. N. Kudin, V. N. Staroverov, R. Kobayashi, J. Normand, 
 K. Raghavachari, A. Rendell, J. C. Burant, S. S. Iyengar, J. Tomasi, 
 M. Cossi, N. Rega, J. M. Millam, M. Klene, J. E. Knox, J. B. Cross, 
 V. Bakken, C. Adamo, J. Jaramillo, R. Gomperts, R. E. Stratmann, 
 O. Yazyev, A. J. Austin, R. Cammi, C. Pomelli, J. W. Ochterski, 
 R. L. Martin, K. Morokuma, V. G. Zakrzewski, G. A. Voth, 
 P. Salvador, J. J. Dannenberg, S. Dapprich, A. D. Daniels, 
 O. Farkas, J. B. Foresman, J. V. Ortiz, J. Cioslowski, 
 and D. J. Fox, Gaussian, Inc., Wallingford CT, 2009.
 
 ******************************************
 Gaussian 09:  EM64L-G09RevA.02 11-Jun-2009
                26-May-2021 
 ******************************************
 %chk=c2h6_029.chk
 %mem=100MB
 --------------------------------
 #p b3lyp/6-31+g(d,p) force nosym
 --------------------------------
 1/10=7,30=1,38=1/1,3;
 2/12=2,15=1,17=6,18=5,40=1/2;
 3/5=1,6=6,7=111,11=2,16=1,25=1,30=1,71=1,74=-5/1,2,3;
 4//1;
 5/5=2,38=5/2;
 6/7=2,8=2,9=2,10=2,28=1/1;
 7/29=1,30=1/1,2,3,16;
 1/10=7,30=1/3;
 99//99;
 Leave Link    1 at Wed May 26 19:12:38 2021, MaxMem=   13107200 cpu:       0.0
 (Enter /programs/64bit/g09/g09-gfortran/bin/l101.exe)
 -------------
 c2h6 molecule
 -------------
 Symbolic Z-matrix:
 Charge =  0 Multiplicity = 1
 C1
 C2                   1    d1
 H3                   1    d2       2    a1
 H4                   1    d3       2    a2       3    t1       0
 H5                   1    d4       2    a3       3    t2       0
 H6                   2    d5       1    a4       3    t3       0
 H7                   2    d6       1    a5       6    t4       0
 H8                   2    d7       1    a6       6    t5       0
       Variables:
       Constants:
  d1                    1.73388                  
  a1                  150.13863                  
  t1                   98.78776                  
  d2                    1.09257                  
  a2                   88.3411                   
  t2                 -157.65983                  
  d3                    1.09788                  
  d4                    1.0854                   
  a3                   86.14093                  
  d5                    1.08754                  
  a4                   90.45019                  
  t3                  179.83002                  
  d6                    1.09252                  
  a5                   90.63994                  
  t4                  122.37838                  
  d7                    1.10247                  
  a6                  156.12726                  
  t5                 -120.00048                  
 
 NAtoms=      8 NQM=      8 NQMF=      0 NMic=      0 NMicF=      0 NTot=      8.
                    Isotopes and Nuclear Properties:
 (Nuclear quadrupole moments (NQMom) in fm**2, nuclear magnetic moments (NMagM)
  in nuclear magnetons)

  Atom         1           2           3           4           5           6           7           8
 IAtWgt=          12          12           1           1           1           1           1           1
 AtmWgt=  12.0000000  12.0000000   1.0078250   1.0078250   1.0078250   1.0078250   1.0078250   1.0078250
 NucSpn=           0           0           1           1           1           1           1           1
 AtZEff=   0.0000000   0.0000000   0.0000000   0.0000000   0.0000000   0.0000000   0.0000000   0.0000000
 NQMom=    0.0000000   0.0000000   0.0000000   0.0000000   0.0000000   0.0000000   0.0000000   0.0000000
 NMagM=    0.0000000   0.0000000   2.7928460   2.7928460   2.7928460   2.7928460   2.7928460   2.7928460
 Leave Link  101 at Wed May 26 19:12:38 2021, MaxMem=   13107200 cpu:       0.0
 (Enter /programs/64bit/g09/g09-gfortran/bin/l103.exe)

 GradGradGradGradGradGradGradGradGradGradGradGradGradGradGradGradGradGrad
 Berny optimization.
 Initialization pass.
                       ----------------------------
                       !    Initial Parameters    !
                       ! (Angstroms and Degrees)  !
 ----------------------                            ----------------------
 !      Name          Value   Derivative information (Atomic Units)     !
 ------------------------------------------------------------------------
 !       d1          1.7339   Frozen                                    !
 !       a1        150.1386   Frozen                                    !
 !       t1         98.7878   Frozen                                    !
 !       d2          1.0926   Frozen                                    !
 !       a2         88.3411   Frozen                                    !
 !       t2       -157.6598   Frozen                                    !
 !       d3          1.0979   Frozen                                    !
 !       d4          1.0854   Frozen                                    !
 !       a3         86.1409   Frozen                                    !
 !       d5          1.0875   Frozen                                    !
 !       a4         90.4502   Frozen                                    !
 !       t3        179.83     Frozen                                    !
 !       d6          1.0925   Frozen                                    !
 !       a5         90.6399   Frozen                                    !
 !       t4        122.3784   Frozen                                    !
 !       d7          1.1025   Frozen                                    !
 !       a6        156.1273   Frozen                                    !
 !       t5       -120.0005   Frozen                                    !
 ------------------------------------------------------------------------
 Trust Radius=3.00D-01 FncErr=1.00D-07 GrdErr=1.00D-07
 Number of steps in this run=   2 maximum allowed number of steps=   2.
 GradGradGradGradGradGradGradGradGradGradGradGradGradGradGradGradGradGrad

 Leave Link  103 at Wed May 26 19:12:38 2021, MaxMem=   13107200 cpu:       0.0
 (Enter /programs/64bit/g09/g09-gfortran/bin/l202.exe)
                          Input orientation:                          
 ---------------------------------------------------------------------
 Center     Atomic      Atomic             Coordinates (Angstroms)
 Number     Number       Type             X           Y           Z
 ---------------------------------------------------------------------
      1          6           0        0.000000    0.000000    0.000000
      2          6           0        0.000000    0.000000    1.733879
      3          1           0        0.543996    0.000000   -0.947516
      4          1           0       -0.167657   -1.084534    0.031783
      5          1           0       -1.001661    0.411632    0.073050
      6          1           0       -1.087504    0.003226    1.742424
      7          1           0        0.582278   -0.924341    1.746082
      8          1           0        0.224237    0.385735    2.742029
 ---------------------------------------------------------------------
                    Distance matrix (angstroms):
                    1          2          3          4          5
     1  C    0.000000
     2  C    1.733879   0.000000
     3  H    1.092574   2.736021   0.000000
     4  H    1.097876   2.025205   1.625327   0.000000
     5  H    1.085404   1.982705   1.897381   1.713411   0.000000
     6  H    2.053952   1.087542   3.146042   2.226125   1.720748
     7  H    2.059674   1.092522   2.848041   1.878001   2.663217
     8  H    2.778092   1.102470   3.723409   3.108168   2.937166
                    6          7          8
     6  H    0.000000
     7  H    1.910122   0.000000
     8  H    1.692981   1.684163   0.000000
 Symmetry turned off by external request.
 Stoichiometry    C2H6
 Framework group  C1[X(C2H6)]
 Deg. of freedom    18
 Full point group                 C1      NOp   1
 Rotational constants (GHZ):     97.1519579     17.0646391     16.2070861
 Leave Link  202 at Wed May 26 19:12:38 2021, MaxMem=   13107200 cpu:       0.0
 (Enter /programs/64bit/g09/g09-gfortran/bin/l301.exe)
 Standard basis: 6-31+G(d,p) (6D, 7F)
 Ernie: Thresh=  0.10000D-02 Tol=  0.10000D-05 Strict=F.
 Integral buffers will be    131072 words long.
 Raffenetti 2 integral format.
 Two-electron integral symmetry is turned off.
    68 basis functions,   106 primitive gaussians,    68 cartesian basis functions
     9 alpha electrons        9 beta electrons
       nuclear repulsion energy        40.6653320802 Hartrees.
 IExCor=  402 DFT=T Ex+Corr=B3LYP ExCW=0 ScaHFX=  0.200000
 ScaDFX=  0.800000  0.720000  1.000000  0.810000 ScalE2=  1.000000  1.000000
 IRadAn=      0 IRanWt=     -1 IRanGd=            0 ICorTp=0
 NAtoms=    8 NActive=    8 NUniq=    8 SFac= 7.50D-01 NAtFMM=   80 NAOKFM=F Big=F
 Leave Link  301 at Wed May 26 19:12:38 2021, MaxMem=   13107200 cpu:       0.0
 (Enter /programs/64bit/g09/g09-gfortran/bin/l302.exe)
 NPDir=0 NMtPBC=     1 NCelOv=     1 NCel=       1 NClECP=     1 NCelD=      1
         NCelK=      1 NCelE2=     1 NClLst=     1 CellRange=     0.0.
 One-electron integrals computed using PRISM.
 NBasis=    68 RedAO= T  NBF=    68
 NBsUse=    68 1.00D-06 NBFU=    68
 Precomputing XC quadrature grid using
 IXCGrd= 2 IRadAn=           0 IRanWt=          -1 IRanGd=           0 AccXCQ= 1.00D-10.
 NRdTot=     510 NPtTot=       65100 NUsed=       68787 NTot=       68819
 NSgBfM=    68    68    68    68    68 NAtAll=     8     8.
 Leave Link  302 at Wed May 26 19:12:38 2021, MaxMem=   13107200 cpu:       0.1
 (Enter /programs/64bit/g09/g09-gfortran/bin/l303.exe)
 DipDrv:  MaxL=1.
 Leave Link  303 at Wed May 26 19:12:38 2021, MaxMem=   13107200 cpu:       0.0
 (Enter /programs/64bit/g09/g09-gfortran/bin/l401.exe)
 Harris functional with IExCor=  402 diagonalized for initial guess.
 ExpMin= 4.38D-02 ExpMax= 3.05D+03 ExpMxC= 4.57D+02 IAcc=2 IRadAn=         0 AccDes= 0.00D+00
 HarFok:  IExCor=  402 AccDes= 0.00D+00 IRadAn=         0 IDoV= 1
 ScaDFX=  1.000000  1.000000  1.000000  1.000000
 FoFCou: FMM=F IPFlag=           0 FMFlag=      100000 FMFlg1=           0
         NFxFlg=           0 DoJE=T BraDBF=F KetDBF=T FulRan=T
         Omega=  0.000000  0.000000  1.000000  0.000000  0.000000 ICntrl=     500 IOpCl=  0
         NMat0=    1 NMatS0=    1 NMatT0=    0 NMatD0=    1 NMtDS0=    0 NMtDT0=    0
         I1Cent=           4 NGrid=           0.
 Symmetry not used in FoFCou.
 Harris En= -79.7655879163122    
 Leave Link  401 at Wed May 26 19:12:39 2021, MaxMem=   13107200 cpu:       0.7
 (Enter /programs/64bit/g09/g09-gfortran/bin/l502.exe)
 Closed shell SCF:
 Requested convergence on RMS density matrix=1.00D-08 within 128 cycles.
 Requested convergence on MAX density matrix=1.00D-06.
 Requested convergence on             energy=1.00D-06.
 No special actions if energy rises.
 Using DIIS extrapolation, IDIIS=  1040.
 Two-electron integral symmetry not used.
        68702 words used for storage of precomputed grid.
 Keep R1 ints in memory in canonical form, NReq=3743087.
 IEnd=      101552 IEndB=      101552 NGot=    13107200 MDV=    10273922
 LenX=    10273922 LenY=    10268857
 Symmetry not used in FoFDir.
 MinBra= 0 MaxBra= 2 Meth= 1.
 IRaf=       0 NMat=   1 IRICut=       1 DoRegI=T DoRafI=F ISym2E= 0 JSym2E=0.

 Cycle   1  Pass 1  IDiag  1:
 E= -79.6140896742632    
 DIIS: error= 3.53D-02 at cycle   1 NSaved=   1.
 NSaved= 1 IEnMin= 1 EnMin= -79.6140896742632     IErMin= 1 ErrMin= 3.53D-02
 ErrMax= 3.53D-02 EMaxC= 1.00D-01 BMatC= 9.16D-02 BMatP= 9.16D-02
 IDIUse=3 WtCom= 6.47D-01 WtEn= 3.53D-01
 Coeff-Com:  0.100D+01
 Coeff-En:   0.100D+01
 Coeff:      0.100D+01
 Gap=     0.316 Goal=   None    Shift=    0.000
 GapD=    0.316 DampG=1.000 DampE=0.500 DampFc=0.5000 IDamp=-1.
 Damping current iteration by 5.00D-01
 RMSDP=1.08D-02 MaxDP=1.28D-01              OVMax= 2.05D-01

 Cycle   2  Pass 1  IDiag  1:
 E= -79.6585999318668     Delta-E=       -0.044510257604 Rises=F Damp=T
 DIIS: error= 8.99D-03 at cycle   2 NSaved=   2.
 NSaved= 2 IEnMin= 2 EnMin= -79.6585999318668     IErMin= 2 ErrMin= 8.99D-03
 ErrMax= 8.99D-03 EMaxC= 1.00D-01 BMatC= 4.25D-03 BMatP= 9.16D-02
 IDIUse=3 WtCom= 9.10D-01 WtEn= 8.99D-02
 Coeff-Com:  0.103D+00 0.897D+00
 Coeff-En:   0.172D+00 0.828D+00
 Coeff:      0.109D+00 0.891D+00
 Gap=     0.304 Goal=   None    Shift=    0.000
 RMSDP=1.93D-03 MaxDP=2.68D-02 DE=-4.45D-02 OVMax= 1.16D-01

 Cycle   3  Pass 1  IDiag  1:
 E= -79.7198264250169     Delta-E=       -0.061226493150 Rises=F Damp=F
 DIIS: error= 2.08D-03 at cycle   3 NSaved=   3.
 NSaved= 3 IEnMin= 3 EnMin= -79.7198264250169     IErMin= 3 ErrMin= 2.08D-03
 ErrMax= 2.08D-03 EMaxC= 1.00D-01 BMatC= 3.22D-04 BMatP= 4.25D-03
 IDIUse=3 WtCom= 9.79D-01 WtEn= 2.08D-02
 Coeff-Com:  0.567D-02 0.183D+00 0.811D+00
 Coeff-En:   0.000D+00 0.000D+00 0.100D+01
 Coeff:      0.555D-02 0.179D+00 0.815D+00
 Gap=     0.291 Goal=   None    Shift=    0.000
 RMSDP=4.47D-04 MaxDP=4.46D-03 DE=-6.12D-02 OVMax= 6.49D-03

 Cycle   4  Pass 1  IDiag  1:
 E= -79.7201414776620     Delta-E=       -0.000315052645 Rises=F Damp=F
 DIIS: error= 4.44D-04 at cycle   4 NSaved=   4.
 NSaved= 4 IEnMin= 4 EnMin= -79.7201414776620     IErMin= 4 ErrMin= 4.44D-04
 ErrMax= 4.44D-04 EMaxC= 1.00D-01 BMatC= 1.55D-05 BMatP= 3.22D-04
 IDIUse=3 WtCom= 9.96D-01 WtEn= 4.44D-03
 Coeff-Com: -0.448D-03 0.548D-03 0.176D+00 0.823D+00
 Coeff-En:   0.000D+00 0.000D+00 0.000D+00 0.100D+01
 Coeff:     -0.446D-03 0.546D-03 0.176D+00 0.824D+00
 Gap=     0.291 Goal=   None    Shift=    0.000
 RMSDP=1.09D-04 MaxDP=1.31D-03 DE=-3.15D-04 OVMax= 1.73D-03

 Cycle   5  Pass 1  IDiag  1:
 E= -79.7201561601153     Delta-E=       -0.000014682453 Rises=F Damp=F
 DIIS: error= 1.23D-04 at cycle   5 NSaved=   5.
 NSaved= 5 IEnMin= 5 EnMin= -79.7201561601153     IErMin= 5 ErrMin= 1.23D-04
 ErrMax= 1.23D-04 EMaxC= 1.00D-01 BMatC= 1.60D-06 BMatP= 1.55D-05
 IDIUse=3 WtCom= 9.99D-01 WtEn= 1.23D-03
 Coeff-Com: -0.133D-03-0.125D-02 0.894D-01 0.450D+00 0.462D+00
 Coeff-En:   0.000D+00 0.000D+00 0.000D+00 0.000D+00 0.100D+01
 Coeff:     -0.133D-03-0.125D-02 0.893D-01 0.450D+00 0.462D+00
 Gap=     0.291 Goal=   None    Shift=    0.000
 RMSDP=2.00D-05 MaxDP=2.88D-04 DE=-1.47D-05 OVMax= 6.11D-04

 Cycle   6  Pass 1  IDiag  1:
 E= -79.7201578344051     Delta-E=       -0.000001674290 Rises=F Damp=F
 DIIS: error= 2.61D-05 at cycle   6 NSaved=   6.
 NSaved= 6 IEnMin= 6 EnMin= -79.7201578344051     IErMin= 6 ErrMin= 2.61D-05
 ErrMax= 2.61D-05 EMaxC= 1.00D-01 BMatC= 7.29D-08 BMatP= 1.60D-06
 IDIUse=1 WtCom= 1.00D+00 WtEn= 0.00D+00
 Coeff-Com:  0.145D-03-0.747D-03 0.103D-01 0.632D-01 0.192D+00 0.735D+00
 Coeff:      0.145D-03-0.747D-03 0.103D-01 0.632D-01 0.192D+00 0.735D+00
 Gap=     0.291 Goal=   None    Shift=    0.000
 RMSDP=4.00D-06 MaxDP=5.68D-05 DE=-1.67D-06 OVMax= 9.11D-05

 Cycle   7  Pass 1  IDiag  1:
 E= -79.7201579106953     Delta-E=       -0.000000076290 Rises=F Damp=F
 DIIS: error= 3.06D-06 at cycle   7 NSaved=   7.
 NSaved= 7 IEnMin= 7 EnMin= -79.7201579106953     IErMin= 7 ErrMin= 3.06D-06
 ErrMax= 3.06D-06 EMaxC= 1.00D-01 BMatC= 1.24D-09 BMatP= 7.29D-08
 IDIUse=1 WtCom= 1.00D+00 WtEn= 0.00D+00
 Coeff-Com:  0.704D-04-0.184D-03-0.118D-02-0.248D-02 0.340D-01 0.191D+00
 Coeff-Com:  0.778D+00
 Coeff:      0.704D-04-0.184D-03-0.118D-02-0.248D-02 0.340D-01 0.191D+00
 Coeff:      0.778D+00
 Gap=     0.291 Goal=   None    Shift=    0.000
 RMSDP=9.98D-07 MaxDP=1.03D-05 DE=-7.63D-08 OVMax= 1.44D-05

 Cycle   8  Pass 1  IDiag  1:
 E= -79.7201579121737     Delta-E=       -0.000000001478 Rises=F Damp=F
 DIIS: error= 6.29D-07 at cycle   8 NSaved=   8.
 NSaved= 8 IEnMin= 8 EnMin= -79.7201579121737     IErMin= 8 ErrMin= 6.29D-07
 ErrMax= 6.29D-07 EMaxC= 1.00D-01 BMatC= 2.51D-11 BMatP= 1.24D-09
 IDIUse=1 WtCom= 1.00D+00 WtEn= 0.00D+00
 Coeff-Com:  0.124D-04-0.199D-04-0.507D-03-0.204D-02 0.222D-02 0.195D-01
 Coeff-Com:  0.169D+00 0.812D+00
 Coeff:      0.124D-04-0.199D-04-0.507D-03-0.204D-02 0.222D-02 0.195D-01
 Coeff:      0.169D+00 0.812D+00
 Gap=     0.291 Goal=   None    Shift=    0.000
 RMSDP=1.51D-07 MaxDP=1.75D-06 DE=-1.48D-09 OVMax= 2.54D-06

 Cycle   9  Pass 1  IDiag  1:
 E= -79.7201579122059     Delta-E=       -0.000000000032 Rises=F Damp=F
 DIIS: error= 8.47D-08 at cycle   9 NSaved=   9.
 NSaved= 9 IEnMin= 9 EnMin= -79.7201579122059     IErMin= 9 ErrMin= 8.47D-08
 ErrMax= 8.47D-08 EMaxC= 1.00D-01 BMatC= 5.82D-13 BMatP= 2.51D-11
 IDIUse=1 WtCom= 1.00D+00 WtEn= 0.00D+00
 Coeff-Com: -0.372D-06 0.196D-05-0.434D-04-0.194D-03-0.544D-03-0.246D-02
 Coeff-Com:  0.592D-02 0.140D+00 0.857D+00
 Coeff:     -0.372D-06 0.196D-05-0.434D-04-0.194D-03-0.544D-03-0.246D-02
 Coeff:      0.592D-02 0.140D+00 0.857D+00
 Gap=     0.291 Goal=   None    Shift=    0.000
 RMSDP=1.97D-08 MaxDP=2.28D-07 DE=-3.22D-11 OVMax= 4.08D-07

 Cycle  10  Pass 1  IDiag  1:
 E= -79.7201579122065     Delta-E=       -0.000000000001 Rises=F Damp=F
 DIIS: error= 1.11D-08 at cycle  10 NSaved=  10.
 NSaved=10 IEnMin=10 EnMin= -79.7201579122065     IErMin=10 ErrMin= 1.11D-08
 ErrMax= 1.11D-08 EMaxC= 1.00D-01 BMatC= 1.18D-14 BMatP= 5.82D-13
 IDIUse=1 WtCom= 1.00D+00 WtEn= 0.00D+00
 Coeff-Com: -0.402D-06 0.662D-06-0.226D-06-0.745D-06-0.155D-03-0.885D-03
 Coeff-Com: -0.227D-02 0.849D-02 0.146D+00 0.849D+00
 Coeff:     -0.402D-06 0.662D-06-0.226D-06-0.745D-06-0.155D-03-0.885D-03
 Coeff:     -0.227D-02 0.849D-02 0.146D+00 0.849D+00
 Gap=     0.291 Goal=   None    Shift=    0.000
 RMSDP=3.08D-09 MaxDP=3.32D-08 DE=-6.39D-13 OVMax= 4.75D-08

 SCF Done:  E(RB3LYP) =  -79.7201579122     A.U. after   10 cycles
             Convg  =    0.3078D-08             -V/T =  2.0108
 KE= 7.886619453514D+01 PE=-2.647177417715D+02 EE= 6.546605724401D+01
 Leave Link  502 at Wed May 26 19:12:45 2021, MaxMem=   13107200 cpu:       6.3
 (Enter /programs/64bit/g09/g09-gfortran/bin/l601.exe)
 Copying SCF densities to generalized density rwf, IOpCl= 0 IROHF=0.

 **********************************************************************

            Population analysis using the SCF density.

 **********************************************************************

 Alpha  occ. eigenvalues --  -10.19934 -10.19928  -0.75122  -0.63159  -0.47120
 Alpha  occ. eigenvalues --   -0.43206  -0.36789  -0.32860  -0.28964
 Alpha virt. eigenvalues --    0.00139   0.00933   0.04980   0.05832   0.06564
 Alpha virt. eigenvalues --    0.07347   0.08667   0.10224   0.14709   0.15459
 Alpha virt. eigenvalues --    0.19870   0.21414   0.25371   0.29454   0.32719
 Alpha virt. eigenvalues --    0.64464   0.64749   0.65682   0.68946   0.74309
 Alpha virt. eigenvalues --    0.75705   0.87828   0.88961   0.95089   0.97166
 Alpha virt. eigenvalues --    1.03442   1.04188   1.05480   1.21435   1.30514
 Alpha virt. eigenvalues --    1.43291   1.54291   1.69671   1.80469   1.92995
 Alpha virt. eigenvalues --    1.96131   2.02343   2.10501   2.14709   2.17375
 Alpha virt. eigenvalues --    2.21491   2.26627   2.36371   2.39180   2.57716
 Alpha virt. eigenvalues --    2.65951   2.66336   2.70601   2.73921   2.86761
 Alpha virt. eigenvalues --    2.91148   3.22186   3.25697   3.36267   3.41567
 Alpha virt. eigenvalues --    3.50265   3.64951   4.26410   4.66886
          Condensed to atoms (all electrons):
              1          2          3          4          5          6
     1  C    5.243027   0.138961   0.356813   0.434356   0.426555  -0.086089
     2  C    0.138961   5.220826   0.015736  -0.086140  -0.078521   0.439381
     3  H    0.356813   0.015736   0.534850  -0.049665  -0.017373   0.003545
     4  H    0.434356  -0.086140  -0.049665   0.619010  -0.037497  -0.005512
     5  H    0.426555  -0.078521  -0.017373  -0.037497   0.562097  -0.015639
     6  H   -0.086089   0.439381   0.003545  -0.005512  -0.015639   0.591242
     7  H   -0.093181   0.441033   0.002198  -0.023900   0.005703  -0.015674
     8  H    0.035338   0.340886  -0.000783   0.003807   0.000627  -0.045484
              7          8
     1  C   -0.093181   0.035338
     2  C    0.441033   0.340886
     3  H    0.002198  -0.000783
     4  H   -0.023900   0.003807
     5  H    0.005703   0.000627
     6  H   -0.015674  -0.045484
     7  H    0.579096  -0.041243
     8  H   -0.041243   0.553367
 Mulliken atomic charges:
              1
     1  C   -0.455783
     2  C   -0.432163
     3  H    0.154678
     4  H    0.145538
     5  H    0.154049
     6  H    0.134229
     7  H    0.145966
     8  H    0.153486
 Sum of Mulliken atomic charges =  -0.00000
 Mulliken charges with hydrogens summed into heavy atoms:
              1
     1  C   -0.001518
     2  C    0.001518
 Sum of Mulliken charges with hydrogens summed into heavy atoms =  -0.00000
 Electronic spatial extent (au):  <R**2>=            169.5747
 Charge=             -0.0000 electrons
 Dipole moment (field-independent basis, Debye):
    X=             -0.2669    Y=             -0.5376    Z=             -0.0174  Tot=              0.6005
 Quadrupole moment (field-independent basis, Debye-Ang):
   XX=            -15.4663   YY=            -16.4082   ZZ=            -14.6772
   XY=             -1.0500   XZ=             -0.7369   YZ=              0.1698
 Traceless Quadrupole moment (field-independent basis, Debye-Ang):
   XX=              0.0510   YY=             -0.8910   ZZ=              0.8400
   XY=             -1.0500   XZ=             -0.7369   YZ=              0.1698
 Octapole moment (field-independent basis, Debye-Ang**2):
  XXX=              1.0346  YYY=              1.8046  ZZZ=            -38.4501  XYY=              0.8912
  XXY=              0.9777  XXZ=            -13.3380  XZZ=              1.1906  YZZ=              1.3788
  YYZ=            -14.9168  XYZ=             -1.1476
 Hexadecapole moment (field-independent basis, Debye-Ang**3):
 XXXX=            -31.0443 YYYY=            -30.8898 ZZZZ=           -171.8393 XXXY=             -0.1975
 XXXZ=              0.2979 YYYX=              0.1572 YYYZ=              1.0696 ZZZX=              1.9640
 ZZZY=              4.6354 XXYY=            -10.5555 XXZZ=            -36.3898 YYZZ=            -39.5015
 XXYZ=              0.5044 YYXZ=              0.9076 ZZXY=             -1.5459
 N-N= 4.066533208016D+01 E-N=-2.647177413888D+02  KE= 7.886619453514D+01
 No NMR shielding tensors so no spin-rotation constants.
 Leave Link  601 at Wed May 26 19:12:45 2021, MaxMem=   13107200 cpu:       0.1
 (Enter /programs/64bit/g09/g09-gfortran/bin/l701.exe)
 Compute integral first derivatives.
 ... and contract with generalized density number  0.
 Leave Link  701 at Wed May 26 19:12:45 2021, MaxMem=   13107200 cpu:       0.1
 (Enter /programs/64bit/g09/g09-gfortran/bin/l702.exe)
 L702 exits ... SP integral derivatives will be done elsewhere.
 Leave Link  702 at Wed May 26 19:12:45 2021, MaxMem=   13107200 cpu:       0.0
 (Enter /programs/64bit/g09/g09-gfortran/bin/l703.exe)
 Compute integral first derivatives, UseDBF=F ICtDFT=           0.
 Integral derivatives from FoFDir, PRISM(SPDF).
 Calling FoFJK, ICntrl=      2127 FMM=F ISym2X=0 I1Cent= 0 IOpClX= 0 NMat=1 NMatS=1 NMatT=0.
 FoFCou: FMM=F IPFlag=           0 FMFlag=      100000 FMFlg1=         800
         NFxFlg=           0 DoJE=F BraDBF=F KetDBF=F FulRan=T
         Omega=  0.000000  0.000000  1.000000  0.000000  0.000000 ICntrl=    2127 IOpCl=  0
         NMat0=    1 NMatS0=    1 NMatT0=    0 NMatD0=    1 NMtDS0=    0 NMtDT0=    0
         I1Cent=           0 NGrid=           0.
 Symmetry not used in FoFCou.
 Leave Link  703 at Wed May 26 19:12:47 2021, MaxMem=   13107200 cpu:       1.4
 (Enter /programs/64bit/g09/g09-gfortran/bin/l716.exe)
 Dipole        =-1.05021174D-01-2.11521202D-01-6.84706064D-03
 -------------------------------------------------------------------
 Center     Atomic                   Forces (Hartrees/Bohr)
 Number     Number              X              Y              Z
 -------------------------------------------------------------------
      1        6          -0.034888721   -0.020076702    0.036902958
      2        6           0.021737028   -0.025905784   -0.013943677
      3        1           0.019179063    0.034332831    0.010673274
      4        1          -0.007801727    0.001438126   -0.005337850
      5        1           0.000708331    0.008905362   -0.041773187
      6        1           0.000004997   -0.023348243    0.012362497
      7        1          -0.020418110   -0.012581540    0.020089093
      8        1           0.021479138    0.037235951   -0.018973107
 -------------------------------------------------------------------
 Cartesian Forces:  Max     0.041773187 RMS     0.022156149
 -----------------------------------------------------------------------------------------------
                       Internal Coordinate Forces (Hartree/Bohr or radian)
  Cent   Atom   N1       Length/X         N2         Alpha/Y        N3         Beta/Z          J
 -----------------------------------------------------------------------------------------------
      1  C 
      2  C        1  -0.000465(     1)
      3  H        1   0.000293(     2)      2  -0.045313(     8)
      4  H        1  -0.000384(     3)      2   0.011056(     9)      3   0.016445(    14)     0
      5  H        1  -0.000088(     4)      2   0.085864(    10)      3   0.017408(    15)     0
      6  H        2   0.000023(     5)      1   0.025407(    11)      3  -0.001405(    16)     0
      7  H        2  -0.000013(     6)      1   0.041478(    12)      6  -0.049509(    17)     0
      8  H        2   0.000047(     7)      1  -0.097892(    13)      6   0.000122(    18)     0
 -----------------------------------------------------------------------------------------------
 Internal  Forces:  Max     0.097892142 RMS     0.036911399
 Force constants in Cartesian coordinates: 
                1             2             3             4             5 
      1  0.639077D+00
      2 -0.599579D-01  0.584459D+00
      3 -0.139478D+00 -0.137064D-01  0.621893D+00
      4 -0.961748D-01 -0.403895D-02  0.122145D-01  0.678338D+00
      5 -0.635358D-02 -0.893725D-01  0.137336D-01 -0.914689D-01  0.553791D+00
      6 -0.515076D-02 -0.953488D-02 -0.164737D+00  0.499162D-01  0.855868D-01
      7 -0.163210D+00  0.120467D-01  0.852290D-01  0.224770D-01  0.628822D-03
      8  0.243190D-01 -0.859480D-01 -0.115726D-01 -0.195890D-02  0.108470D-01
      9  0.104468D+00  0.691635D-02 -0.296236D+00  0.129047D-01  0.361025D-03
     10 -0.736664D-01 -0.572133D-01  0.202302D-01  0.551882D-03 -0.225739D-03
     11 -0.404759D-01 -0.330364D+00  0.480702D-02 -0.180248D-03 -0.651399D-03
     12  0.194429D-01 -0.939311D-03 -0.684319D-01 -0.323946D-02 -0.234188D-01
     13 -0.321951D+00  0.102350D+00  0.218040D-01 -0.212091D-03  0.235335D-02
     14  0.739885D-01 -0.105806D+00  0.673839D-02  0.336680D-02  0.407190D-02
     15  0.155669D-01  0.772938D-02 -0.924878D-01 -0.218798D-01  0.932415D-02
     16  0.184350D-03  0.397192D-05  0.000000D+00 -0.350928D+00  0.708445D-03
     17 -0.106162D-02  0.277860D-02  0.000000D+00 -0.160645D-01 -0.809992D-01
     18  0.238626D-01 -0.543614D-03  0.000000D+00  0.130442D-01 -0.117750D-01
     19  0.338953D-02  0.199201D-02  0.000000D+00 -0.148332D+00  0.106728D+00
     20  0.196273D-02  0.151687D-02  0.000000D+00  0.123804D+00 -0.277924D+00
     21 -0.130649D-01  0.198492D-01  0.000000D+00 -0.173119D-01  0.544769D-02
     22  0.123508D-01  0.481771D-02  0.000000D+00 -0.105720D+00 -0.123705D-01
     23  0.757880D-02  0.227358D-01  0.000000D+00 -0.134596D-01 -0.119762D+00
     24 -0.564689D-02 -0.977069D-02  0.000000D+00 -0.456485D-01 -0.792595D-01
                6             7             8             9            10 
      6  0.622437D+00
      7  0.000000D+00  0.139668D+00
      8  0.000000D+00 -0.808213D-02  0.599867D-01
      9  0.000000D+00 -0.117984D+00 -0.464018D-02  0.277431D+00
     10  0.000000D+00  0.845231D-03 -0.194366D-01  0.485271D-03  0.576110D-01
     11  0.000000D+00 -0.152441D-04  0.394226D-02 -0.875208D-05  0.429680D-01
     12  0.000000D+00  0.393852D-02  0.319930D-01  0.226122D-02 -0.191001D-01
     13  0.000000D+00  0.220198D-03  0.377830D-02  0.126422D-03  0.139821D-01
     14  0.000000D+00 -0.457814D-02  0.119945D-01 -0.262844D-02  0.343106D-01
     15  0.000000D+00  0.288167D-01 -0.157802D-01  0.165445D-01 -0.161535D-02
     16  0.211006D-02  0.000000D+00  0.322981D-05  0.000000D+00  0.158224D-05
     17 -0.109589D-01  0.000000D+00  0.108868D-02  0.000000D+00  0.533330D-03
     18 -0.783022D-01  0.000000D+00  0.000000D+00  0.000000D+00  0.000000D+00
     19 -0.108228D-01  0.000000D+00 -0.916982D-03  0.000000D+00 -0.449218D-03
     20 -0.327635D-02  0.000000D+00 -0.577642D-03  0.000000D+00 -0.282980D-03
     21 -0.769647D-01  0.000000D+00  0.000000D+00  0.000000D+00  0.000000D+00
     22 -0.360527D-01  0.000000D+00  0.229409D-02  0.000000D+00  0.112384D-02
     23 -0.618167D-01  0.000000D+00 -0.133361D-02  0.000000D+00 -0.653317D-03
     24 -0.302434D+00  0.000000D+00  0.000000D+00  0.000000D+00  0.000000D+00
               11            12            13            14            15 
     11  0.332390D+00
     12 -0.505529D-02  0.659214D-01
     13 -0.219202D-02 -0.104191D-02  0.308224D+00
     14 -0.537966D-02 -0.257961D-02 -0.106446D+00  0.947374D-01
     15  0.257020D-03  0.249222D-03 -0.208885D-01 -0.153034D-02  0.756941D-01
     16  0.000000D+00  0.000000D+00  0.000000D+00 -0.150066D-05  0.000000D+00
     17 -0.824472D-04  0.000000D+00 -0.207871D-03 -0.505830D-03  0.000000D+00
     18  0.000000D+00  0.000000D+00  0.000000D+00  0.000000D+00  0.000000D+00
     19  0.694443D-04  0.000000D+00  0.175087D-03  0.426055D-03  0.000000D+00
     20  0.437457D-04  0.000000D+00  0.110294D-03  0.268389D-03  0.000000D+00
     21  0.000000D+00  0.000000D+00  0.000000D+00  0.000000D+00  0.000000D+00
     22 -0.173734D-03  0.000000D+00 -0.438029D-03 -0.106590D-02  0.000000D+00
     23  0.100996D-03  0.000000D+00  0.254637D-03  0.619631D-03  0.000000D+00
     24  0.000000D+00  0.000000D+00  0.000000D+00  0.000000D+00  0.000000D+00
               16            17            18            19            20 
     16  0.350963D+00
     17 -0.803769D-03  0.507300D-01
     18 -0.216551D-02  0.110720D-01  0.712030D-01
     19  0.898249D-04  0.320516D-01 -0.669854D-03  0.133958D+00
     20  0.565724D-04  0.201810D-01 -0.419874D-03 -0.132940D+00  0.261529D+00
     21  0.000000D+00 -0.721119D-03  0.158570D-03  0.111417D-01  0.339034D-02
     22 -0.310576D-03 -0.144472D-01 -0.340714D-01  0.111686D-01  0.728946D-02
     23  0.332958D-04  0.680926D-02  0.166652D-02 -0.740994D-02 -0.503699D-02
     24  0.563400D-04  0.608071D-03  0.694068D-02  0.351004D-03  0.305884D-03
               21            22            23            24 
     21  0.703844D-01
     22  0.192361D-01  0.818254D-01
     23 -0.279661D-01  0.136561D-01  0.958673D-01
     24  0.642173D-02  0.508880D-01  0.881162D-01  0.289071D+00
 Force constants in internal coordinates: 
                1             2             3             4             5 
      1  0.164737D+00
      2  0.000000D+00  0.345169D+00
      3  0.000000D+00  0.000000D+00  0.339181D+00
      4  0.000000D+00  0.000000D+00  0.000000D+00  0.353492D+00
      5  0.000000D+00  0.000000D+00  0.000000D+00  0.000000D+00  0.350983D+00
      6  0.000000D+00  0.000000D+00  0.000000D+00  0.000000D+00  0.000000D+00
      7  0.000000D+00  0.000000D+00  0.000000D+00  0.000000D+00  0.000000D+00
      8  0.000000D+00  0.000000D+00  0.000000D+00  0.000000D+00  0.000000D+00
      9  0.000000D+00  0.000000D+00  0.000000D+00  0.000000D+00  0.000000D+00
     10  0.000000D+00  0.000000D+00  0.000000D+00  0.000000D+00  0.000000D+00
     11  0.000000D+00  0.000000D+00  0.000000D+00  0.000000D+00  0.000000D+00
     12  0.000000D+00  0.000000D+00  0.000000D+00  0.000000D+00  0.000000D+00
     13  0.000000D+00  0.000000D+00  0.000000D+00  0.000000D+00  0.000000D+00
     14  0.000000D+00  0.000000D+00  0.000000D+00  0.000000D+00  0.000000D+00
     15  0.000000D+00  0.000000D+00  0.000000D+00  0.000000D+00  0.000000D+00
     16  0.000000D+00  0.000000D+00  0.000000D+00  0.000000D+00  0.000000D+00
     17  0.000000D+00  0.000000D+00  0.000000D+00  0.000000D+00  0.000000D+00
     18  0.000000D+00  0.000000D+00  0.000000D+00  0.000000D+00  0.000000D+00
                6             7             8             9            10 
      6  0.345228D+00
      7  0.000000D+00  0.334105D+00
      8  0.000000D+00  0.000000D+00  0.306624D+00
      9  0.000000D+00  0.000000D+00  0.194617D-01  0.282760D+00
     10  0.000000D+00  0.000000D+00  0.141037D+00  0.106340D-02  0.313133D+00
     11  0.000000D+00  0.000000D+00  0.000000D+00  0.000000D+00  0.000000D+00
     12  0.000000D+00  0.000000D+00  0.000000D+00  0.000000D+00  0.000000D+00
     13  0.000000D+00  0.000000D+00  0.000000D+00  0.000000D+00  0.000000D+00
     14  0.000000D+00  0.000000D+00  0.413562D-02 -0.779234D-01 -0.697329D-02
     15  0.000000D+00  0.000000D+00  0.202233D-01  0.118168D-01  0.393585D-01
     16  0.000000D+00  0.000000D+00  0.000000D+00  0.000000D+00  0.000000D+00
     17  0.000000D+00  0.000000D+00  0.000000D+00  0.000000D+00  0.000000D+00
     18  0.000000D+00  0.000000D+00  0.000000D+00  0.000000D+00  0.000000D+00
               11            12            13            14            15 
     11  0.300665D+00
     12  0.672877D-03  0.299863D+00
     13  0.734320D-01  0.682548D-01  0.256753D+00
     14  0.000000D+00  0.000000D+00  0.000000D+00  0.219550D+00
     15  0.000000D+00  0.000000D+00  0.000000D+00 -0.159161D+00  0.212475D+00
     16  0.240307D-02 -0.247370D-02 -0.284812D-03  0.690000D-02  0.690000D-02
     17 -0.335427D-02  0.478850D-01  0.488888D-02  0.230000D-02  0.230000D-02
     18  0.524944D-01 -0.534185D-01  0.126101D-02  0.230000D-02  0.230000D-02
               16            17            18 
     16  0.485088D-01
     17  0.257497D-01  0.214343D+00
     18 -0.321880D-02 -0.279006D-01  0.522552D-01
 Leave Link  716 at Wed May 26 19:12:47 2021, MaxMem=   13107200 cpu:       0.0
 (Enter /programs/64bit/g09/g09-gfortran/bin/l103.exe)

 GradGradGradGradGradGradGradGradGradGradGradGradGradGradGradGradGradGrad
 Berny optimization.
 Search for a local minimum.
 Step number   1 out of a maximum of    2
 All quantities printed in internal units (Hartrees-Bohrs-Radians)
 Second derivative matrix not updated -- first step.
 The second derivative matrix:
                          d1        a1        t1        d2        a2
           d1           0.16474
           a1          -0.00000   0.30662
           t1          -0.00000   0.00414   0.21955
           d2           0.00000  -0.00000   0.00000   0.34517
           a2          -0.00000   0.01946  -0.07792  -0.00000   0.28276
           t2          -0.00000   0.02022  -0.15916  -0.00000   0.01182
           d3           0.00000  -0.00000  -0.00000  -0.00000   0.00000
           d4           0.00000  -0.00000  -0.00000  -0.00000   0.00000
           a3          -0.00000   0.14104  -0.00697  -0.00000   0.00106
           d5           0.00000   0.00000   0.00000  -0.00000   0.00000
           a4          -0.00000  -0.00000  -0.00000   0.00000  -0.00000
           t3          -0.00000   0.00000   0.00690   0.00000  -0.00000
           d6           0.00000  -0.00000   0.00000   0.00000   0.00000
           a5           0.00000  -0.00000  -0.00000   0.00000  -0.00000
           t4           0.00000  -0.00000   0.00230   0.00000  -0.00000
           d7          -0.00000  -0.00000  -0.00000  -0.00000  -0.00000
           a6          -0.00000  -0.00000  -0.00000   0.00000   0.00000
           t5          -0.00000   0.00000   0.00230  -0.00000   0.00000
                          t2        d3        d4        a3        d5
           t2           0.21248
           d3           0.00000   0.33918
           d4           0.00000  -0.00000   0.35349
           a3           0.03936   0.00000  -0.00000   0.31313
           d5           0.00000   0.00000   0.00000   0.00000   0.35098
           a4           0.00000  -0.00000  -0.00000  -0.00000  -0.00000
           t3           0.00690  -0.00000  -0.00000  -0.00000  -0.00000
           d6          -0.00000  -0.00000  -0.00000  -0.00000   0.00000
           a5           0.00000  -0.00000   0.00000   0.00000   0.00000
           t4           0.00230  -0.00000  -0.00000  -0.00000  -0.00000
           d7          -0.00000  -0.00000   0.00000  -0.00000   0.00000
           a6           0.00000   0.00000   0.00000   0.00000  -0.00000
           t5           0.00230   0.00000  -0.00000  -0.00000  -0.00000
                          a4        t3        d6        a5        t4
           a4           0.30066
           t3           0.00240   0.04851
           d6           0.00000  -0.00000   0.34523
           a5           0.00067  -0.00247  -0.00000   0.29986
           t4          -0.00335   0.02575  -0.00000   0.04789   0.21434
           d7          -0.00000  -0.00000   0.00000   0.00000   0.00000
           a6           0.07343  -0.00028   0.00000   0.06825   0.00489
           t5           0.05249  -0.00322   0.00000  -0.05342  -0.02790
                          d7        a6        t5
           d7           0.33410
           a6           0.00000   0.25675
           t5          -0.00000   0.00126   0.05226
     Eigenvalues --- 1000.000001000.000001000.000001000.000001000.00000
     Eigenvalues --- 1000.000001000.000001000.000001000.000001000.00000
     Eigenvalues --- 1000.000001000.000001000.000001000.000001000.00000
     Eigenvalues --- 1000.000001000.000001000.00000
 Angle between quadratic step and forces=  90.00 degrees.
 Linear search not attempted -- first point.
 Variable       Old X    -DE/DX   Delta X   Delta X   Delta X     New X
                                 (Linear)    (Quad)   (Total)
    d1        3.27656  -0.00047   0.00000   0.00000   0.00000   3.27656
    a1        2.62041  -0.04531   0.00000   0.00000   0.00000   2.62041
    t1        1.72417   0.01645   0.00000   0.00000   0.00000   1.72417
    d2        2.06467   0.00029   0.00000   0.00000   0.00000   2.06467
    a2        1.54184   0.01106   0.00000   0.00000   0.00000   1.54184
    t2       -2.75168   0.01741   0.00000   0.00000   0.00000  -2.75168
    d3        2.07469  -0.00038   0.00000   0.00000   0.00000   2.07469
    d4        2.05112  -0.00009   0.00000   0.00000   0.00000   2.05112
    a3        1.50344   0.08586   0.00000   0.00000   0.00000   1.50344
    d5        2.05516   0.00002   0.00000   0.00000   0.00000   2.05516
    a4        1.57865   0.02541   0.00000   0.00000   0.00000   1.57865
    t3        3.13863  -0.00141   0.00000   0.00000   0.00000   3.13863
    d6        2.06457  -0.00001   0.00000   0.00000   0.00000   2.06457
    a5        1.58197   0.04148   0.00000   0.00000   0.00000   1.58197
    t4        2.13591  -0.04951   0.00000   0.00000   0.00000   2.13591
    d7        2.08337   0.00005   0.00000   0.00000   0.00000   2.08337
    a6        2.72493  -0.09789   0.00000   0.00000   0.00000   2.72493
    t5       -2.09440   0.00012   0.00000   0.00000   0.00000  -2.09440
         Item               Value     Threshold  Converged?
 Maximum Force            0.000000     0.000450     YES
 RMS     Force            0.000000     0.000300     YES
 Maximum Displacement     0.000000     0.001800     YES
 RMS     Displacement     0.000000     0.001200     YES
 Predicted change in Energy=-0.000000D+00
 Optimization completed.
    -- Stationary point found.
                       ----------------------------
                       !   Optimized Parameters   !
                       ! (Angstroms and Degrees)  !
 ----------------------                            ----------------------
 !      Name          Value   Derivative information (Atomic Units)     !
 ------------------------------------------------------------------------
 !       d1          1.7339   -DE/DX =   -0.0005                        !
 !       a1        150.1386   -DE/DX =   -0.0453                        !
 !       t1         98.7878   -DE/DX =    0.0164                        !
 !       d2          1.0926   -DE/DX =    0.0003                        !
 !       a2         88.3411   -DE/DX =    0.0111                        !
 !       t2       -157.6598   -DE/DX =    0.0174                        !
 !       d3          1.0979   -DE/DX =   -0.0004                        !
 !       d4          1.0854   -DE/DX =   -0.0001                        !
 !       a3         86.1409   -DE/DX =    0.0859                        !
 !       d5          1.0875   -DE/DX =    0.0                           !
 !       a4         90.4502   -DE/DX =    0.0254                        !
 !       t3        179.83     -DE/DX =   -0.0014                        !
 !       d6          1.0925   -DE/DX =    0.0                           !
 !       a5         90.6399   -DE/DX =    0.0415                        !
 !       t4        122.3784   -DE/DX =   -0.0495                        !
 !       d7          1.1025   -DE/DX =    0.0                           !
 !       a6        156.1273   -DE/DX =   -0.0979                        !
 !       t5       -120.0005   -DE/DX =    0.0001                        !
 ------------------------------------------------------------------------
 GradGradGradGradGradGradGradGradGradGradGradGradGradGradGradGradGradGrad

 Leave Link  103 at Wed May 26 19:12:47 2021, MaxMem=   13107200 cpu:       0.0
 (Enter /programs/64bit/g09/g09-gfortran/bin/l9999.exe)
 1\1\GINC-MOLMOD\Force\RB3LYP\6-31+G(d,p)\C2H6\OSPITE\26-May-2021\1\\#p
  b3lyp/6-31+g(d,p) force nosym\\c2h6 molecule\\0,1\C\C,1,d1\H,1,d2,2,a
 1\H,1,d3,2,a2,3,t1,0\H,1,d4,2,a3,3,t2,0\H,2,d5,1,a4,3,t3,0\H,2,d6,1,a5
 ,6,t4,0\H,2,d7,1,a6,6,t5,0\\d1=1.73387934\a1=150.1386267\t1=98.7877627
 6\d2=1.09257393\a2=88.34110168\t2=-157.65982557\d3=1.0978762\d4=1.0854
 0447\a3=86.14093042\d5=1.08754194\a4=90.45018751\t3=179.83001965\d6=1.
 09252164\a5=90.6399447\t4=122.37838367\d7=1.10246961\a6=156.1272603\t5
 =-120.00047555\\Version=EM64L-G09RevA.02\HF=-79.7201579\RMSD=3.078e-09
 \RMSF=2.216e-02\Dipole=-0.1050212,-0.2115212,-0.0068471\Quadrupole=0.0
 378971,-0.6624289,0.6245317,-0.7806397,-0.547884,0.1262519\PG=C01 [X(C
 2H6)]\\@


 IF YOU GIVE EVERYONE A PIECE OF YOUR MIND,
 PRETTY SOON IT WILL BE ALL GONE.
 Job cpu time:  0 days  0 hours  0 minutes  8.8 seconds.
 File lengths (MBytes):  RWF=      5 Int=      0 D2E=      0 Chk=      1 Scr=      1
 Normal termination of Gaussian 09 at Wed May 26 19:12:47 2021.
