 Entering Gaussian System, Link 0=g09
 Input=c2h6_039.com
 Output=c2h6_039.log
 Initial command:
 /programs/64bit/g09/g09-gfortran/bin/l1.exe /data/scratch/Gau-16767.inp -scrdir=/data/scratch/
 Entering Link 1 = /programs/64bit/g09/g09-gfortran/bin/l1.exe PID=     16769.
  
 Copyright (c) 1988,1990,1992,1993,1995,1998,2003,2009, Gaussian, Inc.
                  All Rights Reserved.
  
 This is part of the Gaussian(R) 09 program.  It is based on
 the Gaussian(R) 03 system (copyright 2003, Gaussian, Inc.),
 the Gaussian(R) 98 system (copyright 1998, Gaussian, Inc.),
 the Gaussian(R) 94 system (copyright 1995, Gaussian, Inc.),
 the Gaussian 92(TM) system (copyright 1992, Gaussian, Inc.),
 the Gaussian 90(TM) system (copyright 1990, Gaussian, Inc.),
 the Gaussian 88(TM) system (copyright 1988, Gaussian, Inc.),
 the Gaussian 86(TM) system (copyright 1986, Carnegie Mellon
 University), and the Gaussian 82(TM) system (copyright 1983,
 Carnegie Mellon University). Gaussian is a federally registered
 trademark of Gaussian, Inc.
  
 This software contains proprietary and confidential information,
 including trade secrets, belonging to Gaussian, Inc.
  
 This software is provided under written license and may be
 used, copied, transmitted, or stored only in accord with that
 written license.
  
 The following legend is applicable only to US Government
 contracts under FAR:
  
                    RESTRICTED RIGHTS LEGEND
  
 Use, reproduction and disclosure by the US Government is
 subject to restrictions as set forth in subparagraphs (a)
 and (c) of the Commercial Computer Software - Restricted
 Rights clause in FAR 52.227-19.
  
 Gaussian, Inc.
 340 Quinnipiac St., Bldg. 40, Wallingford CT 06492
  
  
 ---------------------------------------------------------------
 Warning -- This program may not be used in any manner that
 competes with the business of Gaussian, Inc. or will provide
 assistance to any competitor of Gaussian, Inc.  The licensee
 of this program is prohibited from giving any competitor of
 Gaussian, Inc. access to this program.  By using this program,
 the user acknowledges that Gaussian, Inc. is engaged in the
 business of creating and licensing software in the field of
 computational chemistry and represents and warrants to the
 licensee that it is not a competitor of Gaussian, Inc. and that
 it will not use this program in any manner prohibited above.
 ---------------------------------------------------------------
  

 Cite this work as:
 Gaussian 09, Revision A.02,
 M. J. Frisch, G. W. Trucks, H. B. Schlegel, G. E. Scuseria, 
 M. A. Robb, J. R. Cheeseman, G. Scalmani, V. Barone, B. Mennucci, 
 G. A. Petersson, H. Nakatsuji, M. Caricato, X. Li, H. P. Hratchian, 
 A. F. Izmaylov, J. Bloino, G. Zheng, J. L. Sonnenberg, M. Hada, 
 M. Ehara, K. Toyota, R. Fukuda, J. Hasegawa, M. Ishida, T. Nakajima, 
 Y. Honda, O. Kitao, H. Nakai, T. Vreven, J. A. Montgomery, Jr., 
 J. E. Peralta, F. Ogliaro, M. Bearpark, J. J. Heyd, E. Brothers, 
 K. N. Kudin, V. N. Staroverov, R. Kobayashi, J. Normand, 
 K. Raghavachari, A. Rendell, J. C. Burant, S. S. Iyengar, J. Tomasi, 
 M. Cossi, N. Rega, J. M. Millam, M. Klene, J. E. Knox, J. B. Cross, 
 V. Bakken, C. Adamo, J. Jaramillo, R. Gomperts, R. E. Stratmann, 
 O. Yazyev, A. J. Austin, R. Cammi, C. Pomelli, J. W. Ochterski, 
 R. L. Martin, K. Morokuma, V. G. Zakrzewski, G. A. Voth, 
 P. Salvador, J. J. Dannenberg, S. Dapprich, A. D. Daniels, 
 O. Farkas, J. B. Foresman, J. V. Ortiz, J. Cioslowski, 
 and D. J. Fox, Gaussian, Inc., Wallingford CT, 2009.
 
 ******************************************
 Gaussian 09:  EM64L-G09RevA.02 11-Jun-2009
                27-May-2021 
 ******************************************
 %chk=c2h6_039.chk
 %mem=100MB
 --------------------------------
 #p b3lyp/6-31+g(d,p) force nosym
 --------------------------------
 1/10=7,30=1,38=1/1,3;
 2/12=2,15=1,17=6,18=5,40=1/2;
 3/5=1,6=6,7=111,11=2,16=1,25=1,30=1,71=1,74=-5/1,2,3;
 4//1;
 5/5=2,38=5/2;
 6/7=2,8=2,9=2,10=2,28=1/1;
 7/29=1,30=1/1,2,3,16;
 1/10=7,30=1/3;
 99//99;
 Leave Link    1 at Thu May 27 13:46:48 2021, MaxMem=   13107200 cpu:       0.0
 (Enter /programs/64bit/g09/g09-gfortran/bin/l101.exe)
 -------------
 c2h6 molecule
 -------------
 Symbolic Z-matrix:
 Charge =  0 Multiplicity = 1
 C1
 C2                   1    d1
 H3                   1    d2       2    a1
 H4                   1    d3       2    a2       3    t1       0
 H5                   1    d4       2    a3       3    t2       0
 H6                   2    d5       1    a4       3    t3       0
 H7                   2    d6       1    a5       6    t4       0
 H8                   2    d7       1    a6       6    t5       0
       Variables:
       Constants:
  d1                    1.53073                  
  a1                  111.44471                  
  t1                  120.00076                  
  d2                    1.09587                  
  a2                  111.71112                  
  t2                 -119.79822                  
  d3                    1.09481                  
  d4                    1.09624                  
  a3                  111.44523                  
  d5                    1.09575                  
  a4                  111.55778                  
  t3                  180.                       
  d6                    1.09448                  
  a5                  111.56117                  
  t4                  120.00006                  
  d7                    1.09597                  
  a6                  111.42442                  
  t5                 -119.99995                  
 
 NAtoms=      8 NQM=      8 NQMF=      0 NMic=      0 NMicF=      0 NTot=      8.
                    Isotopes and Nuclear Properties:
 (Nuclear quadrupole moments (NQMom) in fm**2, nuclear magnetic moments (NMagM)
  in nuclear magnetons)

  Atom         1           2           3           4           5           6           7           8
 IAtWgt=          12          12           1           1           1           1           1           1
 AtmWgt=  12.0000000  12.0000000   1.0078250   1.0078250   1.0078250   1.0078250   1.0078250   1.0078250
 NucSpn=           0           0           1           1           1           1           1           1
 AtZEff=   0.0000000   0.0000000   0.0000000   0.0000000   0.0000000   0.0000000   0.0000000   0.0000000
 NQMom=    0.0000000   0.0000000   0.0000000   0.0000000   0.0000000   0.0000000   0.0000000   0.0000000
 NMagM=    0.0000000   0.0000000   2.7928460   2.7928460   2.7928460   2.7928460   2.7928460   2.7928460
 Leave Link  101 at Thu May 27 13:46:48 2021, MaxMem=   13107200 cpu:       0.0
 (Enter /programs/64bit/g09/g09-gfortran/bin/l103.exe)

 GradGradGradGradGradGradGradGradGradGradGradGradGradGradGradGradGradGrad
 Berny optimization.
 Initialization pass.
                       ----------------------------
                       !    Initial Parameters    !
                       ! (Angstroms and Degrees)  !
 ----------------------                            ----------------------
 !      Name          Value   Derivative information (Atomic Units)     !
 ------------------------------------------------------------------------
 !       d1          1.5307   Frozen                                    !
 !       a1        111.4447   Frozen                                    !
 !       t1        120.0008   Frozen                                    !
 !       d2          1.0959   Frozen                                    !
 !       a2        111.7111   Frozen                                    !
 !       t2       -119.7982   Frozen                                    !
 !       d3          1.0948   Frozen                                    !
 !       d4          1.0962   Frozen                                    !
 !       a3        111.4452   Frozen                                    !
 !       d5          1.0958   Frozen                                    !
 !       a4        111.5578   Frozen                                    !
 !       t3        180.0      Frozen                                    !
 !       d6          1.0945   Frozen                                    !
 !       a5        111.5612   Frozen                                    !
 !       t4        120.0001   Frozen                                    !
 !       d7          1.096    Frozen                                    !
 !       a6        111.4244   Frozen                                    !
 !       t5       -119.9999   Frozen                                    !
 ------------------------------------------------------------------------
 Trust Radius=3.00D-01 FncErr=1.00D-07 GrdErr=1.00D-07
 Number of steps in this run=   2 maximum allowed number of steps=   2.
 GradGradGradGradGradGradGradGradGradGradGradGradGradGradGradGradGradGrad

 Leave Link  103 at Thu May 27 13:46:48 2021, MaxMem=   13107200 cpu:       0.0
 (Enter /programs/64bit/g09/g09-gfortran/bin/l202.exe)
                          Input orientation:                          
 ---------------------------------------------------------------------
 Center     Atomic      Atomic             Coordinates (Angstroms)
 Number     Number       Type             X           Y           Z
 ---------------------------------------------------------------------
      1          6           0        0.000000    0.000000    0.000000
      2          6           0        0.000000    0.000000    1.530728
      3          1           0        1.020004    0.000000   -0.400654
      4          1           0       -0.508586   -0.880869   -0.405001
      5          1           0       -0.507059    0.885439   -0.400800
      6          1           0       -1.019100    0.000000    1.933350
      7          1           0        0.508948   -0.881522    1.932944
      8          1           0        0.510119    0.883555    1.931058
 ---------------------------------------------------------------------
                    Distance matrix (angstroms):
                    1          2          3          4          5
     1  C    0.000000
     2  C    1.530728   0.000000
     3  H    1.095870   2.184180   0.000000
     4  H    1.094813   2.186695   1.764238   0.000000
     5  H    1.096244   2.184470   1.765198   1.766314   0.000000
     6  H    2.185500   1.095751   3.099277   2.550381   2.548420
     7  H    2.184578   1.094480   2.546357   2.549777   3.098513
     8  H    2.184004   1.095972   2.545099   3.099697   2.544055
                    6          7          8
     6  H    0.000000
     7  H    1.764090   0.000000
     8  H    1.766122   1.765079   0.000000
 Symmetry turned off by external request.
 Stoichiometry    C2H6
 Framework group  C1[X(C2H6)]
 Deg. of freedom    18
 Full point group                 C1      NOp   1
 Rotational constants (GHZ):     80.4687975     19.8683638     19.8649850
 Leave Link  202 at Thu May 27 13:46:48 2021, MaxMem=   13107200 cpu:       0.0
 (Enter /programs/64bit/g09/g09-gfortran/bin/l301.exe)
 Standard basis: 6-31+G(d,p) (6D, 7F)
 Ernie: Thresh=  0.10000D-02 Tol=  0.10000D-05 Strict=F.
 Integral buffers will be    131072 words long.
 Raffenetti 2 integral format.
 Two-electron integral symmetry is turned off.
    68 basis functions,   106 primitive gaussians,    68 cartesian basis functions
     9 alpha electrons        9 beta electrons
       nuclear repulsion energy        42.1111157263 Hartrees.
 IExCor=  402 DFT=T Ex+Corr=B3LYP ExCW=0 ScaHFX=  0.200000
 ScaDFX=  0.800000  0.720000  1.000000  0.810000 ScalE2=  1.000000  1.000000
 IRadAn=      0 IRanWt=     -1 IRanGd=            0 ICorTp=0
 NAtoms=    8 NActive=    8 NUniq=    8 SFac= 7.50D-01 NAtFMM=   80 NAOKFM=F Big=F
 Leave Link  301 at Thu May 27 13:46:48 2021, MaxMem=   13107200 cpu:       0.0
 (Enter /programs/64bit/g09/g09-gfortran/bin/l302.exe)
 NPDir=0 NMtPBC=     1 NCelOv=     1 NCel=       1 NClECP=     1 NCelD=      1
         NCelK=      1 NCelE2=     1 NClLst=     1 CellRange=     0.0.
 One-electron integrals computed using PRISM.
 NBasis=    68 RedAO= T  NBF=    68
 NBsUse=    68 1.00D-06 NBFU=    68
 Precomputing XC quadrature grid using
 IXCGrd= 2 IRadAn=           0 IRanWt=          -1 IRanGd=           0 AccXCQ= 1.00D-10.
 NRdTot=     510 NPtTot=       65100 NUsed=       68787 NTot=       68819
 NSgBfM=    68    68    68    68    68 NAtAll=     8     8.
 Leave Link  302 at Thu May 27 13:46:48 2021, MaxMem=   13107200 cpu:       0.1
 (Enter /programs/64bit/g09/g09-gfortran/bin/l303.exe)
 DipDrv:  MaxL=1.
 Leave Link  303 at Thu May 27 13:46:48 2021, MaxMem=   13107200 cpu:       0.0
 (Enter /programs/64bit/g09/g09-gfortran/bin/l401.exe)
 Harris functional with IExCor=  402 diagonalized for initial guess.
 ExpMin= 4.38D-02 ExpMax= 3.05D+03 ExpMxC= 4.57D+02 IAcc=2 IRadAn=         0 AccDes= 0.00D+00
 HarFok:  IExCor=  402 AccDes= 0.00D+00 IRadAn=         0 IDoV= 1
 ScaDFX=  1.000000  1.000000  1.000000  1.000000
 FoFCou: FMM=F IPFlag=           0 FMFlag=      100000 FMFlg1=           0
         NFxFlg=           0 DoJE=T BraDBF=F KetDBF=T FulRan=T
         Omega=  0.000000  0.000000  1.000000  0.000000  0.000000 ICntrl=     500 IOpCl=  0
         NMat0=    1 NMatS0=    1 NMatT0=    0 NMatD0=    1 NMtDS0=    0 NMtDT0=    0
         I1Cent=           4 NGrid=           0.
 Symmetry not used in FoFCou.
 Harris En= -79.8986607721639    
 Leave Link  401 at Thu May 27 13:46:50 2021, MaxMem=   13107200 cpu:       1.1
 (Enter /programs/64bit/g09/g09-gfortran/bin/l502.exe)
 Closed shell SCF:
 Requested convergence on RMS density matrix=1.00D-08 within 128 cycles.
 Requested convergence on MAX density matrix=1.00D-06.
 Requested convergence on             energy=1.00D-06.
 No special actions if energy rises.
 Using DIIS extrapolation, IDIIS=  1040.
 Two-electron integral symmetry not used.
        68702 words used for storage of precomputed grid.
 Keep R1 ints in memory in canonical form, NReq=3743087.
 IEnd=      101552 IEndB=      101552 NGot=    13107200 MDV=    10273922
 LenX=    10273922 LenY=    10268857
 Symmetry not used in FoFDir.
 MinBra= 0 MaxBra= 2 Meth= 1.
 IRaf=       0 NMat=   1 IRICut=       1 DoRegI=T DoRafI=F ISym2E= 0 JSym2E=0.

 Cycle   1  Pass 1  IDiag  1:
 E= -79.7102076654193    
 DIIS: error= 4.02D-02 at cycle   1 NSaved=   1.
 NSaved= 1 IEnMin= 1 EnMin= -79.7102076654193     IErMin= 1 ErrMin= 4.02D-02
 ErrMax= 4.02D-02 EMaxC= 1.00D-01 BMatC= 1.16D-01 BMatP= 1.16D-01
 IDIUse=3 WtCom= 5.98D-01 WtEn= 4.02D-01
 Coeff-Com:  0.100D+01
 Coeff-En:   0.100D+01
 Coeff:      0.100D+01
 Gap=     0.279 Goal=   None    Shift=    0.000
 GapD=    0.279 DampG=1.000 DampE=0.500 DampFc=0.5000 IDamp=-1.
 Damping current iteration by 5.00D-01
 RMSDP=9.62D-03 MaxDP=1.40D-01              OVMax= 1.99D-01

 Cycle   2  Pass 1  IDiag  1:
 E= -79.7645409422109     Delta-E=       -0.054333276792 Rises=F Damp=T
 DIIS: error= 1.20D-02 at cycle   2 NSaved=   2.
 NSaved= 2 IEnMin= 2 EnMin= -79.7645409422109     IErMin= 2 ErrMin= 1.20D-02
 ErrMax= 1.20D-02 EMaxC= 1.00D-01 BMatC= 4.73D-03 BMatP= 1.16D-01
 IDIUse=3 WtCom= 8.80D-01 WtEn= 1.20D-01
 Coeff-Com:  0.111D+00 0.889D+00
 Coeff-En:   0.190D+00 0.810D+00
 Coeff:      0.121D+00 0.879D+00
 Gap=     0.386 Goal=   None    Shift=    0.000
 RMSDP=1.29D-03 MaxDP=1.05D-02 DE=-5.43D-02 OVMax= 1.22D-01

 Cycle   3  Pass 1  IDiag  1:
 E= -79.8414680628068     Delta-E=       -0.076927120596 Rises=F Damp=F
 DIIS: error= 2.42D-03 at cycle   3 NSaved=   3.
 NSaved= 3 IEnMin= 3 EnMin= -79.8414680628068     IErMin= 3 ErrMin= 2.42D-03
 ErrMax= 2.42D-03 EMaxC= 1.00D-01 BMatC= 1.76D-04 BMatP= 4.73D-03
 IDIUse=3 WtCom= 9.76D-01 WtEn= 2.42D-02
 Coeff-Com:  0.898D-02 0.117D+00 0.874D+00
 Coeff-En:   0.000D+00 0.000D+00 0.100D+01
 Coeff:      0.877D-02 0.114D+00 0.877D+00
 Gap=     0.362 Goal=   None    Shift=    0.000
 RMSDP=2.09D-04 MaxDP=2.14D-03 DE=-7.69D-02 OVMax= 4.66D-03

 Cycle   4  Pass 1  IDiag  1:
 E= -79.8416208451237     Delta-E=       -0.000152782317 Rises=F Damp=F
 DIIS: error= 7.04D-04 at cycle   4 NSaved=   4.
 NSaved= 4 IEnMin= 4 EnMin= -79.8416208451237     IErMin= 4 ErrMin= 7.04D-04
 ErrMax= 7.04D-04 EMaxC= 1.00D-01 BMatC= 1.07D-05 BMatP= 1.76D-04
 IDIUse=3 WtCom= 9.93D-01 WtEn= 7.04D-03
 Coeff-Com: -0.278D-03-0.588D-02 0.185D+00 0.821D+00
 Coeff-En:   0.000D+00 0.000D+00 0.000D+00 0.100D+01
 Coeff:     -0.276D-03-0.584D-02 0.184D+00 0.822D+00
 Gap=     0.362 Goal=   None    Shift=    0.000
 RMSDP=4.33D-05 MaxDP=3.99D-04 DE=-1.53D-04 OVMax= 1.18D-03

 Cycle   5  Pass 1  IDiag  1:
 E= -79.8416309528868     Delta-E=       -0.000010107763 Rises=F Damp=F
 DIIS: error= 2.54D-05 at cycle   5 NSaved=   5.
 NSaved= 5 IEnMin= 5 EnMin= -79.8416309528868     IErMin= 5 ErrMin= 2.54D-05
 ErrMax= 2.54D-05 EMaxC= 1.00D-01 BMatC= 2.54D-08 BMatP= 1.07D-05
 IDIUse=1 WtCom= 1.00D+00 WtEn= 0.00D+00
 Coeff-Com:  0.402D-03-0.458D-03-0.639D-02-0.157D-01 0.102D+01
 Coeff:      0.402D-03-0.458D-03-0.639D-02-0.157D-01 0.102D+01
 Gap=     0.362 Goal=   None    Shift=    0.000
 RMSDP=2.34D-06 MaxDP=4.28D-05 DE=-1.01D-05 OVMax= 8.00D-05

 Cycle   6  Pass 1  IDiag  1:
 E= -79.8416309817873     Delta-E=       -0.000000028901 Rises=F Damp=F
 DIIS: error= 5.46D-06 at cycle   6 NSaved=   6.
 NSaved= 6 IEnMin= 6 EnMin= -79.8416309817873     IErMin= 6 ErrMin= 5.46D-06
 ErrMax= 5.46D-06 EMaxC= 1.00D-01 BMatC= 8.34D-10 BMatP= 2.54D-08
 IDIUse=1 WtCom= 1.00D+00 WtEn= 0.00D+00
 Coeff-Com:  0.129D-03-0.138D-03-0.300D-02-0.873D-02 0.342D+00 0.669D+00
 Coeff:      0.129D-03-0.138D-03-0.300D-02-0.873D-02 0.342D+00 0.669D+00
 Gap=     0.362 Goal=   None    Shift=    0.000
 RMSDP=4.66D-07 MaxDP=9.57D-06 DE=-2.89D-08 OVMax= 1.33D-05

 Cycle   7  Pass 1  IDiag  1:
 E= -79.8416309824310     Delta-E=       -0.000000000644 Rises=F Damp=F
 DIIS: error= 2.58D-06 at cycle   7 NSaved=   7.
 NSaved= 7 IEnMin= 7 EnMin= -79.8416309824310     IErMin= 7 ErrMin= 2.58D-06
 ErrMax= 2.58D-06 EMaxC= 1.00D-01 BMatC= 1.84D-10 BMatP= 8.34D-10
 IDIUse=1 WtCom= 1.00D+00 WtEn= 0.00D+00
 Coeff-Com: -0.882D-05 0.308D-05-0.260D-03-0.978D-03-0.649D-02 0.319D+00
 Coeff-Com:  0.688D+00
 Coeff:     -0.882D-05 0.308D-05-0.260D-03-0.978D-03-0.649D-02 0.319D+00
 Coeff:      0.688D+00
 Gap=     0.362 Goal=   None    Shift=    0.000
 RMSDP=1.54D-07 MaxDP=3.09D-06 DE=-6.44D-10 OVMax= 4.27D-06

 Cycle   8  Pass 1  IDiag  1:
 E= -79.8416309826113     Delta-E=       -0.000000000180 Rises=F Damp=F
 DIIS: error= 3.77D-08 at cycle   8 NSaved=   8.
 NSaved= 8 IEnMin= 8 EnMin= -79.8416309826113     IErMin= 8 ErrMin= 3.77D-08
 ErrMax= 3.77D-08 EMaxC= 1.00D-01 BMatC= 7.61D-14 BMatP= 1.84D-10
 IDIUse=1 WtCom= 1.00D+00 WtEn= 0.00D+00
 Coeff-Com: -0.112D-05 0.897D-06-0.948D-05-0.745D-04-0.211D-02 0.255D-01
 Coeff-Com:  0.601D-01 0.917D+00
 Coeff:     -0.112D-05 0.897D-06-0.948D-05-0.745D-04-0.211D-02 0.255D-01
 Coeff:      0.601D-01 0.917D+00
 Gap=     0.362 Goal=   None    Shift=    0.000
 RMSDP=7.14D-09 MaxDP=6.72D-08 DE=-1.80D-10 OVMax= 1.44D-07

 SCF Done:  E(RB3LYP) =  -79.8416309826     A.U. after    8 cycles
             Convg  =    0.7135D-08             -V/T =  2.0110
 KE= 7.897302822597D+01 PE=-2.679581683388D+02 EE= 6.703239340391D+01
 Leave Link  502 at Thu May 27 13:47:01 2021, MaxMem=   13107200 cpu:       8.7
 (Enter /programs/64bit/g09/g09-gfortran/bin/l601.exe)
 Copying SCF densities to generalized density rwf, IOpCl= 0 IROHF=0.

 **********************************************************************

            Population analysis using the SCF density.

 **********************************************************************

 Alpha  occ. eigenvalues --  -10.17804 -10.17782  -0.75315  -0.61755  -0.43459
 Alpha  occ. eigenvalues --   -0.43431  -0.36965  -0.34440  -0.34406
 Alpha virt. eigenvalues --    0.01749   0.03018   0.05373   0.05378   0.08048
 Alpha virt. eigenvalues --    0.08965   0.08968   0.14274   0.19610   0.19660
 Alpha virt. eigenvalues --    0.19721   0.19749   0.25584   0.29793   0.32692
 Alpha virt. eigenvalues --    0.61966   0.64277   0.64293   0.67055   0.67069
 Alpha virt. eigenvalues --    0.69664   0.91497   0.91530   0.96697   0.96768
 Alpha virt. eigenvalues --    1.00386   1.10018   1.10985   1.32488   1.32510
 Alpha virt. eigenvalues --    1.45956   1.67144   1.67216   1.88983   2.05313
 Alpha virt. eigenvalues --    2.05356   2.10047   2.10094   2.11536   2.11554
 Alpha virt. eigenvalues --    2.26255   2.26290   2.38227   2.47213   2.47352
 Alpha virt. eigenvalues --    2.69452   2.79353   2.79597   2.79679   2.89842
 Alpha virt. eigenvalues --    2.89885   3.21060   3.25957   3.39395   3.39513
 Alpha virt. eigenvalues --    3.51656   3.51716   4.32927   4.58122
          Condensed to atoms (all electrons):
              1          2          3          4          5          6
     1  C    5.085766   0.269231   0.404279   0.403964   0.404324  -0.044324
     2  C    0.269231   5.085381  -0.044584  -0.043930  -0.044588   0.404152
     3  H    0.404279  -0.044584   0.559083  -0.029878  -0.029850   0.004477
     4  H    0.403964  -0.043930  -0.029878   0.558250  -0.029668  -0.004065
     5  H    0.404324  -0.044588  -0.029850  -0.029668   0.558833  -0.004082
     6  H   -0.044324   0.404152   0.004477  -0.004065  -0.004082   0.558717
     7  H   -0.044258   0.404156  -0.004109  -0.004039   0.004477  -0.029871
     8  H   -0.044694   0.404526  -0.004103   0.004462  -0.004116  -0.029741
              7          8
     1  C   -0.044258  -0.044694
     2  C    0.404156   0.404526
     3  H   -0.004109  -0.004103
     4  H   -0.004039   0.004462
     5  H    0.004477  -0.004116
     6  H   -0.029871  -0.029741
     7  H    0.558492  -0.029767
     8  H   -0.029767   0.558711
 Mulliken atomic charges:
              1
     1  C   -0.434289
     2  C   -0.434344
     3  H    0.144685
     4  H    0.144903
     5  H    0.144670
     6  H    0.144737
     7  H    0.144917
     8  H    0.144722
 Sum of Mulliken atomic charges =   0.00000
 Mulliken charges with hydrogens summed into heavy atoms:
              1
     1  C   -0.000031
     2  C    0.000031
 Sum of Mulliken charges with hydrogens summed into heavy atoms =   0.00000
 Electronic spatial extent (au):  <R**2>=            148.3228
 Charge=              0.0000 electrons
 Dipole moment (field-independent basis, Debye):
    X=              0.0014    Y=             -0.0011    Z=              0.0003  Tot=              0.0017
 Quadrupole moment (field-independent basis, Debye-Ang):
   XX=            -15.0911   YY=            -15.0823   ZZ=            -15.7254
   XY=              0.0019   XZ=              0.0014   YZ=              0.0007
 Traceless Quadrupole moment (field-independent basis, Debye-Ang):
   XX=              0.2085   YY=              0.2172   ZZ=             -0.4258
   XY=              0.0019   XZ=              0.0014   YZ=              0.0007
 Octapole moment (field-independent basis, Debye-Ang**2):
  XXX=             -0.0080  YYY=             -0.0186  ZZZ=            -36.1031  XYY=             -0.0023
  XXY=             -0.0086  XXZ=            -11.5429  XZZ=             -0.0057  YZZ=             -0.0194
  YYZ=            -11.5457  XYZ=              0.0007
 Hexadecapole moment (field-independent basis, Debye-Ang**3):
 XXXX=            -31.3540 YYYY=            -31.3455 ZZZZ=           -154.1311 XXXY=              0.0007
 XXXZ=             -1.2652 YYYX=             -0.0018 YYYZ=             -0.0121 ZZZX=              0.0016
 ZZZY=             -0.0352 XXYY=            -10.4529 XXZZ=            -29.5309 YYZZ=            -29.5261
 XXYZ=             -0.0029 YYXZ=              1.2754 ZZXY=              0.0048
 N-N= 4.211111572630D+01 E-N=-2.679581692569D+02  KE= 7.897302822597D+01
 No NMR shielding tensors so no spin-rotation constants.
 Leave Link  601 at Thu May 27 13:47:01 2021, MaxMem=   13107200 cpu:       0.1
 (Enter /programs/64bit/g09/g09-gfortran/bin/l701.exe)
 Compute integral first derivatives.
 ... and contract with generalized density number  0.
 Leave Link  701 at Thu May 27 13:47:01 2021, MaxMem=   13107200 cpu:       0.1
 (Enter /programs/64bit/g09/g09-gfortran/bin/l702.exe)
 L702 exits ... SP integral derivatives will be done elsewhere.
 Leave Link  702 at Thu May 27 13:47:01 2021, MaxMem=   13107200 cpu:       0.0
 (Enter /programs/64bit/g09/g09-gfortran/bin/l703.exe)
 Compute integral first derivatives, UseDBF=F ICtDFT=           0.
 Integral derivatives from FoFDir, PRISM(SPDF).
 Calling FoFJK, ICntrl=      2127 FMM=F ISym2X=0 I1Cent= 0 IOpClX= 0 NMat=1 NMatS=1 NMatT=0.
 FoFCou: FMM=F IPFlag=           0 FMFlag=      100000 FMFlg1=         800
         NFxFlg=           0 DoJE=F BraDBF=F KetDBF=F FulRan=T
         Omega=  0.000000  0.000000  1.000000  0.000000  0.000000 ICntrl=    2127 IOpCl=  0
         NMat0=    1 NMatS0=    1 NMatT0=    0 NMatD0=    1 NMtDS0=    0 NMtDT0=    0
         I1Cent=           0 NGrid=           0.
 Symmetry not used in FoFCou.
