 Entering Gaussian System, Link 0=g09
 Input=c2h6_034.com
 Output=c2h6_034.log
 Initial command:
 /programs/64bit/g09/g09-gfortran/bin/l1.exe /data/scratch/Gau-17731.inp -scrdir=/data/scratch/
 Entering Link 1 = /programs/64bit/g09/g09-gfortran/bin/l1.exe PID=     17732.
  
 Copyright (c) 1988,1990,1992,1993,1995,1998,2003,2009, Gaussian, Inc.
                  All Rights Reserved.
  
 This is part of the Gaussian(R) 09 program.  It is based on
 the Gaussian(R) 03 system (copyright 2003, Gaussian, Inc.),
 the Gaussian(R) 98 system (copyright 1998, Gaussian, Inc.),
 the Gaussian(R) 94 system (copyright 1995, Gaussian, Inc.),
 the Gaussian 92(TM) system (copyright 1992, Gaussian, Inc.),
 the Gaussian 90(TM) system (copyright 1990, Gaussian, Inc.),
 the Gaussian 88(TM) system (copyright 1988, Gaussian, Inc.),
 the Gaussian 86(TM) system (copyright 1986, Carnegie Mellon
 University), and the Gaussian 82(TM) system (copyright 1983,
 Carnegie Mellon University). Gaussian is a federally registered
 trademark of Gaussian, Inc.
  
 This software contains proprietary and confidential information,
 including trade secrets, belonging to Gaussian, Inc.
  
 This software is provided under written license and may be
 used, copied, transmitted, or stored only in accord with that
 written license.
  
 The following legend is applicable only to US Government
 contracts under FAR:
  
                    RESTRICTED RIGHTS LEGEND
  
 Use, reproduction and disclosure by the US Government is
 subject to restrictions as set forth in subparagraphs (a)
 and (c) of the Commercial Computer Software - Restricted
 Rights clause in FAR 52.227-19.
  
 Gaussian, Inc.
 340 Quinnipiac St., Bldg. 40, Wallingford CT 06492
  
  
 ---------------------------------------------------------------
 Warning -- This program may not be used in any manner that
 competes with the business of Gaussian, Inc. or will provide
 assistance to any competitor of Gaussian, Inc.  The licensee
 of this program is prohibited from giving any competitor of
 Gaussian, Inc. access to this program.  By using this program,
 the user acknowledges that Gaussian, Inc. is engaged in the
 business of creating and licensing software in the field of
 computational chemistry and represents and warrants to the
 licensee that it is not a competitor of Gaussian, Inc. and that
 it will not use this program in any manner prohibited above.
 ---------------------------------------------------------------
  

 Cite this work as:
 Gaussian 09, Revision A.02,
 M. J. Frisch, G. W. Trucks, H. B. Schlegel, G. E. Scuseria, 
 M. A. Robb, J. R. Cheeseman, G. Scalmani, V. Barone, B. Mennucci, 
 G. A. Petersson, H. Nakatsuji, M. Caricato, X. Li, H. P. Hratchian, 
 A. F. Izmaylov, J. Bloino, G. Zheng, J. L. Sonnenberg, M. Hada, 
 M. Ehara, K. Toyota, R. Fukuda, J. Hasegawa, M. Ishida, T. Nakajima, 
 Y. Honda, O. Kitao, H. Nakai, T. Vreven, J. A. Montgomery, Jr., 
 J. E. Peralta, F. Ogliaro, M. Bearpark, J. J. Heyd, E. Brothers, 
 K. N. Kudin, V. N. Staroverov, R. Kobayashi, J. Normand, 
 K. Raghavachari, A. Rendell, J. C. Burant, S. S. Iyengar, J. Tomasi, 
 M. Cossi, N. Rega, J. M. Millam, M. Klene, J. E. Knox, J. B. Cross, 
 V. Bakken, C. Adamo, J. Jaramillo, R. Gomperts, R. E. Stratmann, 
 O. Yazyev, A. J. Austin, R. Cammi, C. Pomelli, J. W. Ochterski, 
 R. L. Martin, K. Morokuma, V. G. Zakrzewski, G. A. Voth, 
 P. Salvador, J. J. Dannenberg, S. Dapprich, A. D. Daniels, 
 O. Farkas, J. B. Foresman, J. V. Ortiz, J. Cioslowski, 
 and D. J. Fox, Gaussian, Inc., Wallingford CT, 2009.
 
 ******************************************
 Gaussian 09:  EM64L-G09RevA.02 11-Jun-2009
                27-May-2021 
 ******************************************
 %chk=c2h6_034.chk
 %mem=100MB
 --------------------------------
 #p b3lyp/6-31+g(d,p) force nosym
 --------------------------------
 1/10=7,30=1,38=1/1,3;
 2/12=2,15=1,17=6,18=5,40=1/2;
 3/5=1,6=6,7=111,11=2,16=1,25=1,30=1,71=1,74=-5/1,2,3;
 4//1;
 5/5=2,38=5/2;
 6/7=2,8=2,9=2,10=2,28=1/1;
 7/29=1,30=1/1,2,3,16;
 1/10=7,30=1/3;
 99//99;
 Leave Link    1 at Thu May 27 13:55:11 2021, MaxMem=   13107200 cpu:       0.0
 (Enter /programs/64bit/g09/g09-gfortran/bin/l101.exe)
 -------------
 c2h6 molecule
 -------------
 Symbolic Z-matrix:
 Charge =  0 Multiplicity = 1
 C1
 C2                   1    d1
 H3                   1    d2       2    a1
 H4                   1    d3       2    a2       3    t1       0
 H5                   1    d4       2    a3       3    t2       0
 H6                   2    d5       1    a4       3    t3       0
 H7                   2    d6       1    a5       6    t4       0
 H8                   2    d7       1    a6       6    t5       0
       Variables:
       Constants:
  d1                    1.53797                  
  a1                  109.1833                   
  t1                  120.00007                  
  d2                    1.08938                  
  a2                  110.13298                  
  t2                 -119.98637                  
  d3                    1.09105                  
  d4                    1.09541                  
  a3                  109.18326                  
  d5                    1.09449                  
  a4                  109.19083                  
  t3                  180.                       
  d6                    1.09044                  
  a5                  109.19102                  
  t4                  120.00002                  
  d7                    1.09581                  
  a6                  109.18161                  
  t5                 -120.00002                  
 
 NAtoms=      8 NQM=      8 NQMF=      0 NMic=      0 NMicF=      0 NTot=      8.
                    Isotopes and Nuclear Properties:
 (Nuclear quadrupole moments (NQMom) in fm**2, nuclear magnetic moments (NMagM)
  in nuclear magnetons)

  Atom         1           2           3           4           5           6           7           8
 IAtWgt=          12          12           1           1           1           1           1           1
 AtmWgt=  12.0000000  12.0000000   1.0078250   1.0078250   1.0078250   1.0078250   1.0078250   1.0078250
 NucSpn=           0           0           1           1           1           1           1           1
 AtZEff=   0.0000000   0.0000000   0.0000000   0.0000000   0.0000000   0.0000000   0.0000000   0.0000000
 NQMom=    0.0000000   0.0000000   0.0000000   0.0000000   0.0000000   0.0000000   0.0000000   0.0000000
 NMagM=    0.0000000   0.0000000   2.7928460   2.7928460   2.7928460   2.7928460   2.7928460   2.7928460
 Leave Link  101 at Thu May 27 13:55:11 2021, MaxMem=   13107200 cpu:       0.0
 (Enter /programs/64bit/g09/g09-gfortran/bin/l103.exe)

 GradGradGradGradGradGradGradGradGradGradGradGradGradGradGradGradGradGrad
 Berny optimization.
 Initialization pass.
                       ----------------------------
                       !    Initial Parameters    !
                       ! (Angstroms and Degrees)  !
 ----------------------                            ----------------------
 !      Name          Value   Derivative information (Atomic Units)     !
 ------------------------------------------------------------------------
 !       d1          1.538    Frozen                                    !
 !       a1        109.1833   Frozen                                    !
 !       t1        120.0001   Frozen                                    !
 !       d2          1.0894   Frozen                                    !
 !       a2        110.133    Frozen                                    !
 !       t2       -119.9864   Frozen                                    !
 !       d3          1.091    Frozen                                    !
 !       d4          1.0954   Frozen                                    !
 !       a3        109.1833   Frozen                                    !
 !       d5          1.0945   Frozen                                    !
 !       a4        109.1908   Frozen                                    !
 !       t3        180.0      Frozen                                    !
 !       d6          1.0904   Frozen                                    !
 !       a5        109.191    Frozen                                    !
 !       t4        120.0      Frozen                                    !
 !       d7          1.0958   Frozen                                    !
 !       a6        109.1816   Frozen                                    !
 !       t5       -120.0      Frozen                                    !
 ------------------------------------------------------------------------
 Trust Radius=3.00D-01 FncErr=1.00D-07 GrdErr=1.00D-07
 Number of steps in this run=   2 maximum allowed number of steps=   2.
 GradGradGradGradGradGradGradGradGradGradGradGradGradGradGradGradGradGrad

 Leave Link  103 at Thu May 27 13:55:11 2021, MaxMem=   13107200 cpu:       0.0
 (Enter /programs/64bit/g09/g09-gfortran/bin/l202.exe)
                          Input orientation:                          
 ---------------------------------------------------------------------
 Center     Atomic      Atomic             Coordinates (Angstroms)
 Number     Number       Type             X           Y           Z
 ---------------------------------------------------------------------
      1          6           0        0.000000    0.000000    0.000000
      2          6           0        0.000000    0.000000    1.537972
      3          1           0        1.028890    0.000000   -0.357961
      4          1           0       -0.512191   -0.887138   -0.375539
      5          1           0       -0.517081    0.896103   -0.359943
      6          1           0       -1.033666    0.000000    1.897747
      7          1           0        0.514920   -0.891867    1.896419
      8          1           0        0.517486    0.896312    1.898015
 ---------------------------------------------------------------------
                    Distance matrix (angstroms):
                    1          2          3          4          5
     1  C    0.000000
     2  C    1.537972   0.000000
     3  H    1.089381   2.157123   0.000000
     4  H    1.091047   2.170455   1.778273   0.000000
     5  H    1.095414   2.161586   1.786905   1.783316   0.000000
     6  H    2.160997   1.094488   3.056527   2.495351   2.483349
     7  H    2.158003   1.090438   2.478270   2.493345   3.058273
     8  H    2.161857   1.095809   2.480794   3.067568   2.483687
                    6          7          8
     6  H    0.000000
     7  H    1.787050   0.000000
     8  H    1.791494   1.788181   0.000000
 Symmetry turned off by external request.
 Stoichiometry    C2H6
 Framework group  C1[X(C2H6)]
 Deg. of freedom    18
 Full point group                 C1      NOp   1
 Rotational constants (GHZ):     78.6161116     20.1055344     20.0984231
 Leave Link  202 at Thu May 27 13:55:11 2021, MaxMem=   13107200 cpu:       0.0
 (Enter /programs/64bit/g09/g09-gfortran/bin/l301.exe)
 Standard basis: 6-31+G(d,p) (6D, 7F)
 Ernie: Thresh=  0.10000D-02 Tol=  0.10000D-05 Strict=F.
 Integral buffers will be    131072 words long.
 Raffenetti 2 integral format.
 Two-electron integral symmetry is turned off.
    68 basis functions,   106 primitive gaussians,    68 cartesian basis functions
     9 alpha electrons        9 beta electrons
       nuclear repulsion energy        42.2066977921 Hartrees.
 IExCor=  402 DFT=T Ex+Corr=B3LYP ExCW=0 ScaHFX=  0.200000
 ScaDFX=  0.800000  0.720000  1.000000  0.810000 ScalE2=  1.000000  1.000000
 IRadAn=      0 IRanWt=     -1 IRanGd=            0 ICorTp=0
 NAtoms=    8 NActive=    8 NUniq=    8 SFac= 7.50D-01 NAtFMM=   80 NAOKFM=F Big=F
 Leave Link  301 at Thu May 27 13:55:11 2021, MaxMem=   13107200 cpu:       0.0
 (Enter /programs/64bit/g09/g09-gfortran/bin/l302.exe)
 NPDir=0 NMtPBC=     1 NCelOv=     1 NCel=       1 NClECP=     1 NCelD=      1
         NCelK=      1 NCelE2=     1 NClLst=     1 CellRange=     0.0.
 One-electron integrals computed using PRISM.
 NBasis=    68 RedAO= T  NBF=    68
 NBsUse=    68 1.00D-06 NBFU=    68
 Precomputing XC quadrature grid using
 IXCGrd= 2 IRadAn=           0 IRanWt=          -1 IRanGd=           0 AccXCQ= 1.00D-10.
 NRdTot=     510 NPtTot=       65100 NUsed=       68787 NTot=       68819
 NSgBfM=    68    68    68    68    68 NAtAll=     8     8.
 Leave Link  302 at Thu May 27 13:55:12 2021, MaxMem=   13107200 cpu:       0.1
 (Enter /programs/64bit/g09/g09-gfortran/bin/l303.exe)
 DipDrv:  MaxL=1.
 Leave Link  303 at Thu May 27 13:55:12 2021, MaxMem=   13107200 cpu:       0.0
 (Enter /programs/64bit/g09/g09-gfortran/bin/l401.exe)
 Harris functional with IExCor=  402 diagonalized for initial guess.
 ExpMin= 4.38D-02 ExpMax= 3.05D+03 ExpMxC= 4.57D+02 IAcc=2 IRadAn=         0 AccDes= 0.00D+00
 HarFok:  IExCor=  402 AccDes= 0.00D+00 IRadAn=         0 IDoV= 1
 ScaDFX=  1.000000  1.000000  1.000000  1.000000
 FoFCou: FMM=F IPFlag=           0 FMFlag=      100000 FMFlg1=           0
         NFxFlg=           0 DoJE=T BraDBF=F KetDBF=T FulRan=T
         Omega=  0.000000  0.000000  1.000000  0.000000  0.000000 ICntrl=     500 IOpCl=  0
         NMat0=    1 NMatS0=    1 NMatT0=    0 NMatD0=    1 NMtDS0=    0 NMtDT0=    0
         I1Cent=           4 NGrid=           0.
 Symmetry not used in FoFCou.
 Harris En= -79.8987254180605    
 Leave Link  401 at Thu May 27 13:55:12 2021, MaxMem=   13107200 cpu:       0.6
 (Enter /programs/64bit/g09/g09-gfortran/bin/l502.exe)
 Closed shell SCF:
 Requested convergence on RMS density matrix=1.00D-08 within 128 cycles.
 Requested convergence on MAX density matrix=1.00D-06.
 Requested convergence on             energy=1.00D-06.
 No special actions if energy rises.
 Using DIIS extrapolation, IDIIS=  1040.
 Two-electron integral symmetry not used.
        68702 words used for storage of precomputed grid.
 Keep R1 ints in memory in canonical form, NReq=3743087.
 IEnd=      101552 IEndB=      101552 NGot=    13107200 MDV=    10273922
 LenX=    10273922 LenY=    10268857
 Symmetry not used in FoFDir.
 MinBra= 0 MaxBra= 2 Meth= 1.
 IRaf=       0 NMat=   1 IRICut=       1 DoRegI=T DoRafI=F ISym2E= 0 JSym2E=0.

 Cycle   1  Pass 1  IDiag  1:
 E= -79.7081613219170    
 DIIS: error= 4.00D-02 at cycle   1 NSaved=   1.
 NSaved= 1 IEnMin= 1 EnMin= -79.7081613219170     IErMin= 1 ErrMin= 4.00D-02
 ErrMax= 4.00D-02 EMaxC= 1.00D-01 BMatC= 1.17D-01 BMatP= 1.17D-01
 IDIUse=3 WtCom= 6.00D-01 WtEn= 4.00D-01
 Coeff-Com:  0.100D+01
 Coeff-En:   0.100D+01
 Coeff:      0.100D+01
 Gap=     0.282 Goal=   None    Shift=    0.000
 GapD=    0.282 DampG=1.000 DampE=0.500 DampFc=0.5000 IDamp=-1.
 Damping current iteration by 5.00D-01
 RMSDP=9.65D-03 MaxDP=1.41D-01              OVMax= 2.03D-01

 Cycle   2  Pass 1  IDiag  1:
 E= -79.7631738757973     Delta-E=       -0.055012553880 Rises=F Damp=T
 DIIS: error= 1.16D-02 at cycle   2 NSaved=   2.
 NSaved= 2 IEnMin= 2 EnMin= -79.7631738757973     IErMin= 2 ErrMin= 1.16D-02
 ErrMax= 1.16D-02 EMaxC= 1.00D-01 BMatC= 4.54D-03 BMatP= 1.17D-01
 IDIUse=3 WtCom= 8.84D-01 WtEn= 1.16D-01
 Coeff-Com:  0.108D+00 0.892D+00
 Coeff-En:   0.186D+00 0.814D+00
 Coeff:      0.117D+00 0.883D+00
 Gap=     0.374 Goal=   None    Shift=    0.000
 RMSDP=1.29D-03 MaxDP=9.95D-03 DE=-5.50D-02 OVMax= 1.26D-01

 Cycle   3  Pass 1  IDiag  1:
 E= -79.8404179890940     Delta-E=       -0.077244113297 Rises=F Damp=F
 DIIS: error= 2.27D-03 at cycle   3 NSaved=   3.
 NSaved= 3 IEnMin= 3 EnMin= -79.8404179890940     IErMin= 3 ErrMin= 2.27D-03
 ErrMax= 2.27D-03 EMaxC= 1.00D-01 BMatC= 1.53D-04 BMatP= 4.54D-03
 IDIUse=3 WtCom= 9.77D-01 WtEn= 2.27D-02
 Coeff-Com:  0.722D-02 0.105D+00 0.887D+00
 Coeff-En:   0.000D+00 0.000D+00 0.100D+01
 Coeff:      0.706D-02 0.103D+00 0.890D+00
 Gap=     0.364 Goal=   None    Shift=    0.000
 RMSDP=1.98D-04 MaxDP=2.15D-03 DE=-7.72D-02 OVMax= 4.57D-03

 Cycle   4  Pass 1  IDiag  1:
 E= -79.8405488376721     Delta-E=       -0.000130848578 Rises=F Damp=F
 DIIS: error= 6.96D-04 at cycle   4 NSaved=   4.
 NSaved= 4 IEnMin= 4 EnMin= -79.8405488376721     IErMin= 4 ErrMin= 6.96D-04
 ErrMax= 6.96D-04 EMaxC= 1.00D-01 BMatC= 1.05D-05 BMatP= 1.53D-04
 IDIUse=3 WtCom= 9.93D-01 WtEn= 6.96D-03
 Coeff-Com: -0.531D-03-0.533D-02 0.197D+00 0.809D+00
 Coeff-En:   0.000D+00 0.000D+00 0.000D+00 0.100D+01
 Coeff:     -0.528D-03-0.529D-02 0.196D+00 0.810D+00
 Gap=     0.364 Goal=   None    Shift=    0.000
 RMSDP=4.39D-05 MaxDP=4.52D-04 DE=-1.31D-04 OVMax= 1.22D-03

 Cycle   5  Pass 1  IDiag  1:
 E= -79.8405587454531     Delta-E=       -0.000009907781 Rises=F Damp=F
 DIIS: error= 2.51D-05 at cycle   5 NSaved=   5.
 NSaved= 5 IEnMin= 5 EnMin= -79.8405587454531     IErMin= 5 ErrMin= 2.51D-05
 ErrMax= 2.51D-05 EMaxC= 1.00D-01 BMatC= 2.89D-08 BMatP= 1.05D-05
 IDIUse=1 WtCom= 1.00D+00 WtEn= 0.00D+00
 Coeff-Com:  0.353D-03-0.624D-03-0.114D-02 0.104D-01 0.991D+00
 Coeff:      0.353D-03-0.624D-03-0.114D-02 0.104D-01 0.991D+00
 Gap=     0.364 Goal=   None    Shift=    0.000
 RMSDP=2.92D-06 MaxDP=6.99D-05 DE=-9.91D-06 OVMax= 9.72D-05

 Cycle   6  Pass 1  IDiag  1:
 E= -79.8405587695260     Delta-E=       -0.000000024073 Rises=F Damp=F
 DIIS: error= 1.80D-05 at cycle   6 NSaved=   6.
 NSaved= 6 IEnMin= 6 EnMin= -79.8405587695260     IErMin= 6 ErrMin= 1.80D-05
 ErrMax= 1.80D-05 EMaxC= 1.00D-01 BMatC= 9.20D-09 BMatP= 2.89D-08
 IDIUse=1 WtCom= 1.00D+00 WtEn= 0.00D+00
 Coeff-Com:  0.200D-03-0.219D-03-0.513D-02-0.129D-01 0.523D+00 0.495D+00
 Coeff:      0.200D-03-0.219D-03-0.513D-02-0.129D-01 0.523D+00 0.495D+00
 Gap=     0.364 Goal=   None    Shift=    0.000
 RMSDP=1.12D-06 MaxDP=2.39D-05 DE=-2.41D-08 OVMax= 3.30D-05

 Cycle   7  Pass 1  IDiag  1:
 E= -79.8405587784311     Delta-E=       -0.000000008905 Rises=F Damp=F
 DIIS: error= 1.09D-06 at cycle   7 NSaved=   7.
 NSaved= 7 IEnMin= 7 EnMin= -79.8405587784311     IErMin= 7 ErrMin= 1.09D-06
 ErrMax= 1.09D-06 EMaxC= 1.00D-01 BMatC= 4.17D-11 BMatP= 9.20D-09
 IDIUse=1 WtCom= 1.00D+00 WtEn= 0.00D+00
 Coeff-Com: -0.711D-05 0.310D-05-0.283D-03-0.104D-02-0.408D-02 0.546D-01
 Coeff-Com:  0.951D+00
 Coeff:     -0.711D-05 0.310D-05-0.283D-03-0.104D-02-0.408D-02 0.546D-01
 Coeff:      0.951D+00
 Gap=     0.364 Goal=   None    Shift=    0.000
 RMSDP=1.04D-07 MaxDP=1.60D-06 DE=-8.91D-09 OVMax= 2.24D-06

 Cycle   8  Pass 1  IDiag  1:
 E= -79.8405587784752     Delta-E=       -0.000000000044 Rises=F Damp=F
 DIIS: error= 1.38D-07 at cycle   8 NSaved=   8.
 NSaved= 8 IEnMin= 8 EnMin= -79.8405587784752     IErMin= 8 ErrMin= 1.38D-07
 ErrMax= 1.38D-07 EMaxC= 1.00D-01 BMatC= 7.40D-13 BMatP= 4.17D-11
 IDIUse=1 WtCom= 1.00D+00 WtEn= 0.00D+00
 Coeff-Com: -0.344D-05 0.229D-05-0.574D-04-0.266D-03-0.451D-02 0.144D-01
 Coeff-Com:  0.302D+00 0.689D+00
 Coeff:     -0.344D-05 0.229D-05-0.574D-04-0.266D-03-0.451D-02 0.144D-01
 Coeff:      0.302D+00 0.689D+00
 Gap=     0.364 Goal=   None    Shift=    0.000
 RMSDP=1.83D-08 MaxDP=1.81D-07 DE=-4.42D-11 OVMax= 3.12D-07

 Cycle   9  Pass 1  IDiag  1:
 E= -79.8405587784763     Delta-E=       -0.000000000001 Rises=F Damp=F
 DIIS: error= 1.21D-08 at cycle   9 NSaved=   9.
 NSaved= 9 IEnMin= 9 EnMin= -79.8405587784763     IErMin= 9 ErrMin= 1.21D-08
 ErrMax= 1.21D-08 EMaxC= 1.00D-01 BMatC= 7.76D-15 BMatP= 7.40D-13
 IDIUse=1 WtCom= 1.00D+00 WtEn= 0.00D+00
 Coeff-Com: -0.102D-07 0.164D-06 0.749D-05 0.111D-04-0.381D-03-0.107D-02
 Coeff-Com: -0.124D-01 0.586D-01 0.955D+00
 Coeff:     -0.102D-07 0.164D-06 0.749D-05 0.111D-04-0.381D-03-0.107D-02
 Coeff:     -0.124D-01 0.586D-01 0.955D+00
 Gap=     0.364 Goal=   None    Shift=    0.000
 RMSDP=1.84D-09 MaxDP=1.77D-08 DE=-1.05D-12 OVMax= 4.45D-08

 SCF Done:  E(RB3LYP) =  -79.8405587785     A.U. after    9 cycles
             Convg  =    0.1838D-08             -V/T =  2.0107
 KE= 7.899672652524D+01 PE=-2.681740790006D+02 EE= 6.713009590482D+01
 Leave Link  502 at Thu May 27 13:55:17 2021, MaxMem=   13107200 cpu:       4.8
 (Enter /programs/64bit/g09/g09-gfortran/bin/l601.exe)
 Copying SCF densities to generalized density rwf, IOpCl= 0 IROHF=0.

 **********************************************************************

            Population analysis using the SCF density.

 **********************************************************************

 Alpha  occ. eigenvalues --  -10.17667 -10.17595  -0.75430  -0.61319  -0.43958
 Alpha  occ. eigenvalues --   -0.43878  -0.35817  -0.34711  -0.34668
 Alpha virt. eigenvalues --    0.01751   0.03189   0.05271   0.05284   0.07957
 Alpha virt. eigenvalues --    0.08975   0.08981   0.14262   0.19040   0.19095
 Alpha virt. eigenvalues --    0.20459   0.20603   0.24890   0.29477   0.32920
 Alpha virt. eigenvalues --    0.61859   0.64364   0.64404   0.66436   0.66541
 Alpha virt. eigenvalues --    0.69556   0.91978   0.92058   0.97180   0.97257
 Alpha virt. eigenvalues --    0.99846   1.09842   1.11362   1.32005   1.32228
 Alpha virt. eigenvalues --    1.46459   1.68923   1.69159   1.90228   2.04250
 Alpha virt. eigenvalues --    2.04461   2.08713   2.08962   2.09524   2.09900
 Alpha virt. eigenvalues --    2.29157   2.29502   2.37964   2.49350   2.49712
 Alpha virt. eigenvalues --    2.66635   2.72846   2.80777   2.80926   2.91778
 Alpha virt. eigenvalues --    2.92310   3.22554   3.28368   3.36794   3.36879
 Alpha virt. eigenvalues --    3.52505   3.52702   4.33459   4.58398
          Condensed to atoms (all electrons):
              1          2          3          4          5          6
     1  C    5.100262   0.259068   0.405774   0.405130   0.405803  -0.047026
     2  C    0.259068   5.096044  -0.046720  -0.045115  -0.046937   0.405893
     3  H    0.405774  -0.046720   0.556627  -0.028695  -0.027908   0.004898
     4  H    0.405130  -0.045115  -0.028695   0.556228  -0.028476  -0.004473
     5  H    0.405803  -0.046937  -0.027908  -0.028476   0.557467  -0.004568
     6  H   -0.047026   0.405893   0.004898  -0.004473  -0.004568   0.556623
     7  H   -0.046762   0.405763  -0.004579  -0.004473   0.004886  -0.028063
     8  H   -0.047712   0.406873  -0.004615   0.004791  -0.004609  -0.028022
              7          8
     1  C   -0.046762  -0.047712
     2  C    0.405763   0.406873
     3  H   -0.004579  -0.004615
     4  H   -0.004473   0.004791
     5  H    0.004886  -0.004609
     6  H   -0.028063  -0.028022
     7  H    0.556112  -0.028173
     8  H   -0.028173   0.556733
 Mulliken atomic charges:
              1
     1  C   -0.434537
     2  C   -0.434870
     3  H    0.145218
     4  H    0.145083
     5  H    0.144343
     6  H    0.144739
     7  H    0.145288
     8  H    0.144735
 Sum of Mulliken atomic charges =  -0.00000
 Mulliken charges with hydrogens summed into heavy atoms:
              1
     1  C    0.000107
     2  C   -0.000107
 Sum of Mulliken charges with hydrogens summed into heavy atoms =  -0.00000
 Electronic spatial extent (au):  <R**2>=            147.6980
 Charge=             -0.0000 electrons
 Dipole moment (field-independent basis, Debye):
    X=              0.0039    Y=             -0.0060    Z=             -0.0044  Tot=              0.0084
 Quadrupole moment (field-independent basis, Debye-Ang):
   XX=            -14.9391   YY=            -14.9460   ZZ=            -16.1772
   XY=             -0.0065   XZ=              0.0134   YZ=              0.0164
 Traceless Quadrupole moment (field-independent basis, Debye-Ang):
   XX=              0.4150   YY=              0.4081   ZZ=             -0.8231
   XY=             -0.0065   XZ=              0.0134   YZ=              0.0164
 Octapole moment (field-independent basis, Debye-Ang**2):
  XXX=              0.0101  YYY=             -0.0516  ZZZ=            -37.3382  XYY=              0.0185
  XXY=             -0.0174  XXZ=            -11.4735  XZZ=              0.0108  YZZ=             -0.0311
  YYZ=            -11.4779  XYZ=              0.0002
 Hexadecapole moment (field-independent basis, Debye-Ang**3):
 XXXX=            -31.2310 YYYY=            -31.2621 ZZZZ=           -156.2152 XXXY=              0.0006
 XXXZ=             -1.2982 YYYX=             -0.0031 YYYZ=             -0.0387 ZZZX=              0.0221
 ZZZY=             -0.0413 XXYY=            -10.4158 XXZZ=            -29.4061 YYZZ=            -29.3964
 XXYZ=             -0.0128 YYXZ=              1.3034 ZZXY=              0.0177
 N-N= 4.220669779207D+01 E-N=-2.681740792469D+02  KE= 7.899672652524D+01
 No NMR shielding tensors so no spin-rotation constants.
 Leave Link  601 at Thu May 27 13:55:17 2021, MaxMem=   13107200 cpu:       0.0
 (Enter /programs/64bit/g09/g09-gfortran/bin/l701.exe)
 Compute integral first derivatives.
 ... and contract with generalized density number  0.
 Leave Link  701 at Thu May 27 13:55:17 2021, MaxMem=   13107200 cpu:       0.0
 (Enter /programs/64bit/g09/g09-gfortran/bin/l702.exe)
 L702 exits ... SP integral derivatives will be done elsewhere.
 Leave Link  702 at Thu May 27 13:55:17 2021, MaxMem=   13107200 cpu:       0.0
 (Enter /programs/64bit/g09/g09-gfortran/bin/l703.exe)
 Compute integral first derivatives, UseDBF=F ICtDFT=           0.
 Integral derivatives from FoFDir, PRISM(SPDF).
 Calling FoFJK, ICntrl=      2127 FMM=F ISym2X=0 I1Cent= 0 IOpClX= 0 NMat=1 NMatS=1 NMatT=0.
 FoFCou: FMM=F IPFlag=           0 FMFlag=      100000 FMFlg1=         800
         NFxFlg=           0 DoJE=F BraDBF=F KetDBF=F FulRan=T
         Omega=  0.000000  0.000000  1.000000  0.000000  0.000000 ICntrl=    2127 IOpCl=  0
         NMat0=    1 NMatS0=    1 NMatT0=    0 NMatD0=    1 NMtDS0=    0 NMtDT0=    0
         I1Cent=           0 NGrid=           0.
 Symmetry not used in FoFCou.
 Leave Link  703 at Thu May 27 13:55:19 2021, MaxMem=   13107200 cpu:       1.1
 (Enter /programs/64bit/g09/g09-gfortran/bin/l716.exe)
 Dipole        = 1.52443417D-03-2.34269169D-03-1.74544135D-03
 -------------------------------------------------------------------
 Center     Atomic                   Forces (Hartrees/Bohr)
 Number     Number              X              Y              Z
 -------------------------------------------------------------------
      1        6          -0.001838261    0.002818173    0.010047467
      2        6          -0.001412887    0.001764881   -0.010856821
      3        1           0.001643491    0.000511282   -0.005787071
      4        1          -0.000585880   -0.000820382   -0.003970129
      5        1           0.001369543   -0.001550912   -0.004494180
      6        1           0.001713618    0.000069883    0.004921708
      7        1           0.000401591   -0.000655284    0.005788984
      8        1          -0.001291214   -0.002137642    0.004350041
 -------------------------------------------------------------------
 Cartesian Forces:  Max     0.010856821 RMS     0.004079375
 -----------------------------------------------------------------------------------------------
                       Internal Coordinate Forces (Hartree/Bohr or radian)
  Cent   Atom   N1       Length/X         N2         Alpha/Y        N3         Beta/Z          J
 -----------------------------------------------------------------------------------------------
      1  C 
      2  C        1   0.004204(     1)
      3  H        1   0.003454(     2)      2   0.010140(     8)
      4  H        1   0.002309(     3)      2   0.006973(     9)      3   0.000188(    14)     0
      5  H        1  -0.000438(     4)      2   0.010166(    10)      3   0.000804(    15)     0
      6  H        2  -0.000001(     5)      1   0.010779(    11)      3  -0.000001(    16)     0
      7  H        2   0.002629(     6)      1   0.010746(    12)      6   0.000039(    17)     0
      8  H        2  -0.000929(     7)      1   0.010207(    13)      6   0.000097(    18)     0
 -----------------------------------------------------------------------------------------------
 Internal  Forces:  Max     0.010778848 RMS     0.005935815
 Force constants in Cartesian coordinates: 
                1             2             3             4             5 
      1  0.660839D+00
      2  0.748194D-03  0.656444D+00
      3  0.635478D-03  0.446780D-02  0.606120D+00
      4 -0.865225D-01 -0.149227D-03 -0.162045D-03  0.657742D+00
      5 -0.149302D-03 -0.866863D-01 -0.330791D-04 -0.204599D-02  0.658961D+00
      6  0.323218D-04 -0.106469D-03 -0.286993D+00  0.422926D-03 -0.152259D-02
      7 -0.315837D+00 -0.845689D-04  0.845239D-01  0.881659D-02 -0.162838D-05
      8 -0.132449D-03 -0.790318D-01 -0.223304D-03 -0.282481D-05  0.808803D-03
      9  0.948669D-01 -0.243077D-03 -0.105895D+00  0.253416D-01 -0.468047D-05
     10 -0.136901D+00 -0.100413D+00 -0.435971D-01  0.294247D-02  0.362876D-02
     11 -0.100577D+00 -0.253113D+00 -0.756781D-01  0.362631D-02  0.712814D-02
     12 -0.488452D-01 -0.846478D-01 -0.108683D+00 -0.125797D-01 -0.217881D-01
     13 -0.135941D+00  0.999180D-01 -0.414002D-01  0.279428D-02 -0.345227D-02
     14  0.100130D+00 -0.251984D+00  0.714667D-01 -0.344867D-02  0.677484D-02
     15 -0.466572D-01  0.804231D-01 -0.104549D+00 -0.125999D-01  0.218258D-01
     16  0.877796D-02  0.000000D+00  0.000000D+00 -0.310638D+00  0.963247D-05
     17 -0.134509D-04  0.797196D-03  0.000000D+00 -0.124279D-03 -0.792228D-01
     18  0.252199D-01  0.000000D+00  0.000000D+00  0.929521D-01  0.276518D-04
     19  0.281135D-02 -0.347373D-02  0.000000D+00 -0.138473D+00  0.101795D+00
     20 -0.346375D-02  0.680518D-02  0.000000D+00  0.101821D+00 -0.256054D+00
     21 -0.126569D-01  0.219224D-01  0.000000D+00 -0.471031D-01  0.816018D-01
     22  0.277335D-02  0.345478D-02  0.000000D+00 -0.136661D+00 -0.997838D-01
     23  0.345826D-02  0.676867D-02  0.000000D+00 -0.996760D-01 -0.251710D+00
     24 -0.125953D-01 -0.218158D-01  0.000000D+00 -0.462719D-01 -0.801069D-01
                6             7             8             9            10 
      6  0.600087D+00
      7  0.000000D+00  0.317345D+00
      8  0.000000D+00  0.916988D-04  0.591007D-01
      9  0.000000D+00 -0.905337D-01  0.263570D-03  0.886211D-01
     10  0.000000D+00 -0.524754D-02 -0.273485D-01 -0.150830D-01  0.122475D+00
     11  0.000000D+00  0.173673D-02  0.939717D-02  0.499189D-02  0.109738D+00
     12  0.000000D+00  0.305434D-02  0.151011D-01  0.877910D-02  0.468804D-01
     13  0.000000D+00 -0.507661D-02  0.273951D-01 -0.145917D-01  0.167340D-01
     14  0.000000D+00 -0.174223D-02  0.972592D-02 -0.500771D-02  0.143957D-01
     15  0.000000D+00  0.295547D-02 -0.151414D-01  0.849492D-02  0.117997D-01
     16  0.831234D-01  0.000000D+00  0.000000D+00  0.000000D+00  0.000000D+00
     17  0.769768D-04  0.000000D+00  0.694199D-03  0.000000D+00  0.603840D-03
     18 -0.104170D+00  0.000000D+00  0.000000D+00  0.000000D+00  0.000000D+00
     19 -0.421929D-01  0.000000D+00 -0.603427D-03  0.000000D+00 -0.524884D-03
     20  0.731207D-01  0.000000D+00 -0.348389D-03  0.000000D+00 -0.303042D-03
     21 -0.105075D+00  0.000000D+00  0.000000D+00  0.000000D+00  0.000000D+00
     22 -0.413857D-01  0.000000D+00  0.600435D-03  0.000000D+00  0.522281D-03
     23 -0.715686D-01  0.000000D+00 -0.346662D-03  0.000000D+00 -0.301539D-03
     24 -0.103848D+00  0.000000D+00  0.000000D+00  0.000000D+00  0.000000D+00
               11            12            13            14            15 
     11  0.249190D+00
     12  0.811962D-01  0.911693D-01
     13 -0.145253D-01  0.114901D-01  0.121486D+00
     14 -0.126032D-01  0.101386D-01 -0.109336D+00  0.248086D+00
     15 -0.105100D-01  0.873433D-02  0.445018D-01 -0.765976D-01  0.873196D-01
     16  0.000000D+00  0.000000D+00  0.000000D+00  0.000000D+00  0.000000D+00
     17 -0.348628D-03  0.000000D+00 -0.597965D-03 -0.345045D-03  0.000000D+00
     18  0.000000D+00  0.000000D+00  0.000000D+00  0.000000D+00  0.000000D+00
     19  0.303043D-03  0.000000D+00  0.519777D-03  0.299928D-03  0.000000D+00
     20  0.174962D-03  0.000000D+00  0.300093D-03  0.173164D-03  0.000000D+00
     21  0.000000D+00  0.000000D+00  0.000000D+00  0.000000D+00  0.000000D+00
     22 -0.301540D-03  0.000000D+00 -0.517199D-03 -0.298441D-03  0.000000D+00
     23  0.174094D-03  0.000000D+00  0.298605D-03  0.172305D-03  0.000000D+00
     24  0.000000D+00  0.000000D+00  0.000000D+00  0.000000D+00  0.000000D+00
               16            17            18            19            20 
     16  0.311996D+00
     17 -0.109857D-05  0.590200D-01
     18 -0.890513D-01 -0.313143D-05  0.871388D-01
     19 -0.508110D-02  0.273834D-01 -0.145985D-01  0.123638D+00
     20 -0.173927D-02  0.972451D-02 -0.499708D-02 -0.111160D+00  0.251992D+00
     21  0.297161D-02 -0.151411D-01  0.853770D-02  0.451775D-01 -0.782551D-01
     22 -0.505456D-02 -0.272504D-01 -0.145222D-01  0.171103D-01  0.145451D-01
     23  0.173076D-02  0.968063D-02  0.497262D-02 -0.145439D-01 -0.124674D-01
     24  0.295622D-02  0.150673D-01  0.849348D-02  0.116139D-01  0.101315D-01
               21            22            23            24 
     21  0.880126D-01
     22  0.116108D-01  0.121827D+00
     23 -0.101280D-01  0.109034D+00  0.247728D+00
     24  0.852500D-02  0.442971D-01  0.767239D-01  0.868296D-01
 Force constants in internal coordinates: 
                1             2             3             4             5 
      1  0.286993D+00
      2  0.000000D+00  0.348843D+00
      3  0.000000D+00  0.000000D+00  0.346919D+00
      4  0.000000D+00  0.000000D+00  0.000000D+00  0.341944D+00
      5  0.000000D+00  0.000000D+00  0.000000D+00  0.000000D+00  0.342991D+00
      6  0.000000D+00  0.000000D+00  0.000000D+00  0.000000D+00  0.000000D+00
      7  0.000000D+00  0.000000D+00  0.000000D+00  0.000000D+00  0.000000D+00
      8  0.000000D+00  0.000000D+00  0.000000D+00  0.000000D+00  0.000000D+00
      9  0.000000D+00  0.000000D+00  0.000000D+00  0.000000D+00  0.000000D+00
     10  0.000000D+00  0.000000D+00  0.000000D+00  0.000000D+00  0.000000D+00
     11  0.000000D+00  0.000000D+00  0.000000D+00  0.000000D+00  0.000000D+00
     12  0.000000D+00  0.000000D+00  0.000000D+00  0.000000D+00  0.000000D+00
     13  0.000000D+00  0.000000D+00  0.000000D+00  0.000000D+00  0.000000D+00
     14  0.000000D+00  0.000000D+00  0.000000D+00  0.000000D+00  0.000000D+00
     15  0.000000D+00  0.000000D+00  0.000000D+00  0.000000D+00  0.000000D+00
     16  0.000000D+00  0.000000D+00  0.000000D+00  0.000000D+00  0.000000D+00
     17  0.000000D+00  0.000000D+00  0.000000D+00  0.000000D+00  0.000000D+00
     18  0.000000D+00  0.000000D+00  0.000000D+00  0.000000D+00  0.000000D+00
                6             7             8             9            10 
      6  0.347621D+00
      7  0.000000D+00  0.341498D+00
      8  0.000000D+00  0.000000D+00  0.242087D+00
      9  0.000000D+00  0.000000D+00  0.420208D-01  0.241443D+00
     10  0.000000D+00  0.000000D+00  0.405823D-01  0.420380D-01  0.242103D+00
     11  0.000000D+00  0.000000D+00  0.000000D+00  0.000000D+00  0.000000D+00
     12  0.000000D+00  0.000000D+00  0.000000D+00  0.000000D+00  0.000000D+00
     13  0.000000D+00  0.000000D+00  0.000000D+00  0.000000D+00  0.000000D+00
     14  0.000000D+00  0.000000D+00 -0.656462D-01  0.607272D-05  0.656517D-01
     15  0.000000D+00  0.000000D+00  0.645239D-01 -0.644823D-01 -0.112267D-02
     16  0.000000D+00  0.000000D+00  0.000000D+00  0.000000D+00  0.000000D+00
     17  0.000000D+00  0.000000D+00  0.000000D+00  0.000000D+00  0.000000D+00
     18  0.000000D+00  0.000000D+00  0.000000D+00  0.000000D+00  0.000000D+00
               11            12            13            14            15 
     11  0.240172D+00
     12  0.407955D-01  0.240173D+00
     13  0.407818D-01  0.407817D-01  0.240178D+00
     14  0.000000D+00  0.000000D+00  0.000000D+00  0.221533D+00
     15  0.000000D+00  0.000000D+00  0.000000D+00 -0.106815D+00  0.223411D+00
     16  0.000000D+00  0.000000D+00  0.000000D+00  0.790955D-02  0.790955D-02
     17 -0.645311D-01 -0.116230D-04  0.645308D-01  0.263652D-02  0.263652D-02
     18  0.645174D-01 -0.645192D-01 -0.178385D-05  0.263652D-02  0.263652D-02
               16            17            18 
     16  0.237287D-01
     17  0.790863D-02  0.225193D+00
     18  0.791032D-02 -0.108651D+00  0.225213D+00
 Leave Link  716 at Thu May 27 13:55:19 2021, MaxMem=   13107200 cpu:       0.0
 (Enter /programs/64bit/g09/g09-gfortran/bin/l103.exe)

 GradGradGradGradGradGradGradGradGradGradGradGradGradGradGradGradGradGrad
 Berny optimization.
 Search for a local minimum.
 Step number   1 out of a maximum of    2
 All quantities printed in internal units (Hartrees-Bohrs-Radians)
 Second derivative matrix not updated -- first step.
 The second derivative matrix:
                          d1        a1        t1        d2        a2
           d1           0.28699
           a1           0.00000   0.24209
           t1          -0.00000  -0.06565   0.22153
           d2           0.00000   0.00000  -0.00000   0.34884
           a2           0.00000   0.04202   0.00001   0.00000   0.24144
           t2          -0.00000   0.06452  -0.10682   0.00000  -0.06448
           d3          -0.00000  -0.00000  -0.00000   0.00000   0.00000
           d4           0.00000   0.00000   0.00000   0.00000   0.00000
           a3          -0.00000   0.04058   0.06565   0.00000   0.04204
           d5          -0.00000   0.00000   0.00000   0.00000  -0.00000
           a4           0.00000   0.00000  -0.00000   0.00000   0.00000
           t3           0.00000   0.00000   0.00791   0.00000   0.00000
           d6          -0.00000   0.00000   0.00000   0.00000  -0.00000
           a5          -0.00000   0.00000  -0.00000   0.00000  -0.00000
           t4           0.00000   0.00000   0.00264   0.00000  -0.00000
           d7          -0.00000   0.00000   0.00000   0.00000   0.00000
           a6           0.00000   0.00000  -0.00000   0.00000   0.00000
           t5          -0.00000   0.00000   0.00264   0.00000   0.00000
                          t2        d3        d4        a3        d5
           t2           0.22341
           d3           0.00000   0.34692
           d4          -0.00000   0.00000   0.34194
           a3          -0.00112  -0.00000  -0.00000   0.24210
           d5           0.00000   0.00000   0.00000  -0.00000   0.34299
           a4          -0.00000  -0.00000  -0.00000   0.00000  -0.00000
           t3           0.00791  -0.00000   0.00000  -0.00000   0.00000
           d6           0.00000   0.00000   0.00000  -0.00000   0.00000
           a5          -0.00000   0.00000  -0.00000   0.00000  -0.00000
           t4           0.00264   0.00000   0.00000  -0.00000   0.00000
           d7          -0.00000  -0.00000   0.00000  -0.00000  -0.00000
           a6          -0.00000   0.00000  -0.00000  -0.00000  -0.00000
           t5           0.00264  -0.00000   0.00000  -0.00000   0.00000
                          a4        t3        d6        a5        t4
           a4           0.24017
           t3          -0.00000   0.02373
           d6           0.00000  -0.00000   0.34762
           a5           0.04080   0.00000  -0.00000   0.24017
           t4          -0.06453   0.00791  -0.00000  -0.00001   0.22519
           d7          -0.00000  -0.00000   0.00000   0.00000   0.00000
           a6           0.04078   0.00000   0.00000   0.04078   0.06453
           t5           0.06452   0.00791  -0.00000  -0.06452  -0.10865
                          d7        a6        t5
           d7           0.34150
           a6           0.00000   0.24018
           t5          -0.00000  -0.00000   0.22521
     Eigenvalues --- 1000.000001000.000001000.000001000.000001000.00000
     Eigenvalues --- 1000.000001000.000001000.000001000.000001000.00000
     Eigenvalues --- 1000.000001000.000001000.000001000.000001000.00000
     Eigenvalues --- 1000.000001000.000001000.00000
 Angle between quadratic step and forces=  90.00 degrees.
 Linear search not attempted -- first point.
 Variable       Old X    -DE/DX   Delta X   Delta X   Delta X     New X
                                 (Linear)    (Quad)   (Total)
    d1        2.90635   0.00420   0.00000   0.00000   0.00000   2.90635
    a1        1.90561   0.01014   0.00000   0.00000   0.00000   1.90561
    t1        2.09440   0.00019   0.00000   0.00000   0.00000   2.09440
    d2        2.05863   0.00345   0.00000   0.00000   0.00000   2.05863
    a2        1.92218   0.00697   0.00000   0.00000   0.00000   1.92218
    t2       -2.09416   0.00080   0.00000   0.00000   0.00000  -2.09416
    d3        2.06178   0.00231   0.00000   0.00000   0.00000   2.06178
    d4        2.07003  -0.00044   0.00000   0.00000   0.00000   2.07003
    a3        1.90561   0.01017   0.00000   0.00000   0.00000   1.90561
    d5        2.06828  -0.00000   0.00000   0.00000   0.00000   2.06828
    a4        1.90574   0.01078   0.00000   0.00000   0.00000   1.90574
    t3        3.14159  -0.00000   0.00000   0.00000   0.00000   3.14159
    d6        2.06063   0.00263   0.00000   0.00000   0.00000   2.06063
    a5        1.90574   0.01075   0.00000   0.00000   0.00000   1.90574
    t4        2.09440   0.00004   0.00000   0.00000   0.00000   2.09440
    d7        2.07078  -0.00093   0.00000   0.00000   0.00000   2.07078
    a6        1.90558   0.01021   0.00000   0.00000   0.00000   1.90558
    t5       -2.09440   0.00010   0.00000   0.00000   0.00000  -2.09440
         Item               Value     Threshold  Converged?
 Maximum Force            0.000000     0.000450     YES
 RMS     Force            0.000000     0.000300     YES
 Maximum Displacement     0.000000     0.001800     YES
 RMS     Displacement     0.000000     0.001200     YES
 Predicted change in Energy=-0.000000D+00
 Optimization completed.
    -- Stationary point found.
                       ----------------------------
                       !   Optimized Parameters   !
                       ! (Angstroms and Degrees)  !
 ----------------------                            ----------------------
 !      Name          Value   Derivative information (Atomic Units)     !
 ------------------------------------------------------------------------
 !       d1          1.538    -DE/DX =    0.0042                        !
 !       a1        109.1833   -DE/DX =    0.0101                        !
 !       t1        120.0001   -DE/DX =    0.0002                        !
 !       d2          1.0894   -DE/DX =    0.0035                        !
 !       a2        110.133    -DE/DX =    0.007                         !
 !       t2       -119.9864   -DE/DX =    0.0008                        !
 !       d3          1.091    -DE/DX =    0.0023                        !
 !       d4          1.0954   -DE/DX =   -0.0004                        !
 !       a3        109.1833   -DE/DX =    0.0102                        !
 !       d5          1.0945   -DE/DX =    0.0                           !
 !       a4        109.1908   -DE/DX =    0.0108                        !
 !       t3        180.0      -DE/DX =    0.0                           !
 !       d6          1.0904   -DE/DX =    0.0026                        !
 !       a5        109.191    -DE/DX =    0.0107                        !
 !       t4        120.0      -DE/DX =    0.0                           !
 !       d7          1.0958   -DE/DX =   -0.0009                        !
 !       a6        109.1816   -DE/DX =    0.0102                        !
 !       t5       -120.0      -DE/DX =    0.0001                        !
 ------------------------------------------------------------------------
 GradGradGradGradGradGradGradGradGradGradGradGradGradGradGradGradGradGrad

 Leave Link  103 at Thu May 27 13:55:19 2021, MaxMem=   13107200 cpu:       0.0
 (Enter /programs/64bit/g09/g09-gfortran/bin/l9999.exe)
 1\1\GINC-MOLMOD\Force\RB3LYP\6-31+G(d,p)\C2H6\OSPITE\27-May-2021\1\\#p
  b3lyp/6-31+g(d,p) force nosym\\c2h6 molecule\\0,1\C\C,1,d1\H,1,d2,2,a
 1\H,1,d3,2,a2,3,t1,0\H,1,d4,2,a3,3,t2,0\H,2,d5,1,a4,3,t3,0\H,2,d6,1,a5
 ,6,t4,0\H,2,d7,1,a6,6,t5,0\\d1=1.53797191\a1=109.18330468\t1=120.00006
 738\d2=1.08938107\a2=110.13298285\t2=-119.98637187\d3=1.09104693\d4=1.
 09541382\a3=109.18326114\d5=1.09448794\a4=109.19082901\t3=179.99999825
 \d6=1.09043753\a5=109.1910233\t4=120.00002443\d7=1.09580928\a6=109.181
 60983\t5=-120.00001959\\Version=EM64L-G09RevA.02\HF=-79.8405588\RMSD=1
 .838e-09\RMSF=4.079e-03\Dipole=0.0015244,-0.0023427,-0.0017454\Quadrup
 ole=0.3085584,0.3034158,-0.6119742,-0.0048533,0.0099782,0.0121666\PG=C
 01 [X(C2H6)]\\@


 THERE ARE TWO THINGS THAT EVERYBODY THINKS THEY CAN DO BETTER THAN
 ANYONE ELSE - PUNCH THE FIRE, AND EDIT A DAILY PAPER.
 -- UNCLE ESEK, "CENTURY MAGAZINE", 1885
 Job cpu time:  0 days  0 hours  0 minutes  6.8 seconds.
 File lengths (MBytes):  RWF=      5 Int=      0 D2E=      0 Chk=      1 Scr=      1
 Normal termination of Gaussian 09 at Thu May 27 13:55:19 2021.
