 Entering Gaussian System, Link 0=g09
 Input=c2h6_001.com
 Output=c2h6_001.log
 Initial command:
 /programs/64bit/g09/g09-gfortran/bin/l1.exe /data/scratch/Gau-16842.inp -scrdir=/data/scratch/
 Entering Link 1 = /programs/64bit/g09/g09-gfortran/bin/l1.exe PID=     16843.
  
 Copyright (c) 1988,1990,1992,1993,1995,1998,2003,2009, Gaussian, Inc.
                  All Rights Reserved.
  
 This is part of the Gaussian(R) 09 program.  It is based on
 the Gaussian(R) 03 system (copyright 2003, Gaussian, Inc.),
 the Gaussian(R) 98 system (copyright 1998, Gaussian, Inc.),
 the Gaussian(R) 94 system (copyright 1995, Gaussian, Inc.),
 the Gaussian 92(TM) system (copyright 1992, Gaussian, Inc.),
 the Gaussian 90(TM) system (copyright 1990, Gaussian, Inc.),
 the Gaussian 88(TM) system (copyright 1988, Gaussian, Inc.),
 the Gaussian 86(TM) system (copyright 1986, Carnegie Mellon
 University), and the Gaussian 82(TM) system (copyright 1983,
 Carnegie Mellon University). Gaussian is a federally registered
 trademark of Gaussian, Inc.
  
 This software contains proprietary and confidential information,
 including trade secrets, belonging to Gaussian, Inc.
  
 This software is provided under written license and may be
 used, copied, transmitted, or stored only in accord with that
 written license.
  
 The following legend is applicable only to US Government
 contracts under FAR:
  
                    RESTRICTED RIGHTS LEGEND
  
 Use, reproduction and disclosure by the US Government is
 subject to restrictions as set forth in subparagraphs (a)
 and (c) of the Commercial Computer Software - Restricted
 Rights clause in FAR 52.227-19.
  
 Gaussian, Inc.
 340 Quinnipiac St., Bldg. 40, Wallingford CT 06492
  
  
 ---------------------------------------------------------------
 Warning -- This program may not be used in any manner that
 competes with the business of Gaussian, Inc. or will provide
 assistance to any competitor of Gaussian, Inc.  The licensee
 of this program is prohibited from giving any competitor of
 Gaussian, Inc. access to this program.  By using this program,
 the user acknowledges that Gaussian, Inc. is engaged in the
 business of creating and licensing software in the field of
 computational chemistry and represents and warrants to the
 licensee that it is not a competitor of Gaussian, Inc. and that
 it will not use this program in any manner prohibited above.
 ---------------------------------------------------------------
  

 Cite this work as:
 Gaussian 09, Revision A.02,
 M. J. Frisch, G. W. Trucks, H. B. Schlegel, G. E. Scuseria, 
 M. A. Robb, J. R. Cheeseman, G. Scalmani, V. Barone, B. Mennucci, 
 G. A. Petersson, H. Nakatsuji, M. Caricato, X. Li, H. P. Hratchian, 
 A. F. Izmaylov, J. Bloino, G. Zheng, J. L. Sonnenberg, M. Hada, 
 M. Ehara, K. Toyota, R. Fukuda, J. Hasegawa, M. Ishida, T. Nakajima, 
 Y. Honda, O. Kitao, H. Nakai, T. Vreven, J. A. Montgomery, Jr., 
 J. E. Peralta, F. Ogliaro, M. Bearpark, J. J. Heyd, E. Brothers, 
 K. N. Kudin, V. N. Staroverov, R. Kobayashi, J. Normand, 
 K. Raghavachari, A. Rendell, J. C. Burant, S. S. Iyengar, J. Tomasi, 
 M. Cossi, N. Rega, J. M. Millam, M. Klene, J. E. Knox, J. B. Cross, 
 V. Bakken, C. Adamo, J. Jaramillo, R. Gomperts, R. E. Stratmann, 
 O. Yazyev, A. J. Austin, R. Cammi, C. Pomelli, J. W. Ochterski, 
 R. L. Martin, K. Morokuma, V. G. Zakrzewski, G. A. Voth, 
 P. Salvador, J. J. Dannenberg, S. Dapprich, A. D. Daniels, 
 O. Farkas, J. B. Foresman, J. V. Ortiz, J. Cioslowski, 
 and D. J. Fox, Gaussian, Inc., Wallingford CT, 2009.
 
 ******************************************
 Gaussian 09:  EM64L-G09RevA.02 11-Jun-2009
                27-May-2021 
 ******************************************
 %chk=c2h6_001.chk
 %mem=100MB
 --------------------------------
 #p b3lyp/6-31+g(d,p) force nosym
 --------------------------------
 1/10=7,30=1,38=1/1,3;
 2/12=2,15=1,17=6,18=5,40=1/2;
 3/5=1,6=6,7=111,11=2,16=1,25=1,30=1,71=1,74=-5/1,2,3;
 4//1;
 5/5=2,38=5/2;
 6/7=2,8=2,9=2,10=2,28=1/1;
 7/29=1,30=1/1,2,3,16;
 1/10=7,30=1/3;
 99//99;
 Leave Link    1 at Thu May 27 13:49:10 2021, MaxMem=   13107200 cpu:       0.0
 (Enter /programs/64bit/g09/g09-gfortran/bin/l101.exe)
 -------------
 c2h6 molecule
 -------------
 Symbolic Z-matrix:
 Charge =  0 Multiplicity = 1
 C1
 C2                   1    d1
 H3                   1    d2       2    a1
 H4                   1    d3       2    a2       3    t1       0
 H5                   1    d4       2    a3       3    t2       0
 H6                   2    d5       1    a4       3    t3       0
 H7                   2    d6       1    a5       6    t4       0
 H8                   2    d7       1    a6       6    t5       0
       Variables:
       Constants:
  d1                    1.                       
  a1                  109.                       
  t1                  120.                       
  d2                    1.03                     
  a2                  110.                       
  t2                 -120.                       
  d3                    1.05                     
  d4                    1.1                      
  a3                  109.                       
  d5                    1.03                     
  a4                  109.                       
  t3                  180.                       
  d6                    1.05                     
  a5                  109.                       
  t4                  120.                       
  d7                    1.1                      
  a6                  109.                       
  t5                 -120.                       
 
 NAtoms=      8 NQM=      8 NQMF=      0 NMic=      0 NMicF=      0 NTot=      8.
                    Isotopes and Nuclear Properties:
 (Nuclear quadrupole moments (NQMom) in fm**2, nuclear magnetic moments (NMagM)
  in nuclear magnetons)

  Atom         1           2           3           4           5           6           7           8
 IAtWgt=          12          12           1           1           1           1           1           1
 AtmWgt=  12.0000000  12.0000000   1.0078250   1.0078250   1.0078250   1.0078250   1.0078250   1.0078250
 NucSpn=           0           0           1           1           1           1           1           1
 AtZEff=   0.0000000   0.0000000   0.0000000   0.0000000   0.0000000   0.0000000   0.0000000   0.0000000
 NQMom=    0.0000000   0.0000000   0.0000000   0.0000000   0.0000000   0.0000000   0.0000000   0.0000000
 NMagM=    0.0000000   0.0000000   2.7928460   2.7928460   2.7928460   2.7928460   2.7928460   2.7928460
 Leave Link  101 at Thu May 27 13:49:10 2021, MaxMem=   13107200 cpu:       0.0
 (Enter /programs/64bit/g09/g09-gfortran/bin/l103.exe)

 GradGradGradGradGradGradGradGradGradGradGradGradGradGradGradGradGradGrad
 Berny optimization.
 Initialization pass.
                       ----------------------------
                       !    Initial Parameters    !
                       ! (Angstroms and Degrees)  !
 ----------------------                            ----------------------
 !      Name          Value   Derivative information (Atomic Units)     !
 ------------------------------------------------------------------------
 !       d1          1.0      Frozen                                    !
 !       a1        109.0      Frozen                                    !
 !       t1        120.0      Frozen                                    !
 !       d2          1.03     Frozen                                    !
 !       a2        110.0      Frozen                                    !
 !       t2       -120.0      Frozen                                    !
 !       d3          1.05     Frozen                                    !
 !       d4          1.1      Frozen                                    !
 !       a3        109.0      Frozen                                    !
 !       d5          1.03     Frozen                                    !
 !       a4        109.0      Frozen                                    !
 !       t3        180.0      Frozen                                    !
 !       d6          1.05     Frozen                                    !
 !       a5        109.0      Frozen                                    !
 !       t4        120.0      Frozen                                    !
 !       d7          1.1      Frozen                                    !
 !       a6        109.0      Frozen                                    !
 !       t5       -120.0      Frozen                                    !
 ------------------------------------------------------------------------
 Trust Radius=3.00D-01 FncErr=1.00D-07 GrdErr=1.00D-07
 Number of steps in this run=   2 maximum allowed number of steps=   2.
 GradGradGradGradGradGradGradGradGradGradGradGradGradGradGradGradGradGrad

 Leave Link  103 at Thu May 27 13:49:10 2021, MaxMem=   13107200 cpu:       0.0
 (Enter /programs/64bit/g09/g09-gfortran/bin/l202.exe)
                          Input orientation:                          
 ---------------------------------------------------------------------
 Center     Atomic      Atomic             Coordinates (Angstroms)
 Number     Number       Type             X           Y           Z
 ---------------------------------------------------------------------
      1          6           0        0.000000    0.000000    0.000000
      2          6           0        0.000000    0.000000    1.000000
      3          1           0        0.973884    0.000000   -0.335335
      4          1           0       -0.493339   -0.854488   -0.359121
      5          1           0       -0.520035    0.900727   -0.358125
      6          1           0       -0.973884    0.000000    1.335335
      7          1           0        0.496397   -0.859785    1.341847
      8          1           0        0.520035    0.900727    1.358125
 ---------------------------------------------------------------------
                    Distance matrix (angstroms):
                    1          2          3          4          5
     1  C    0.000000
     2  C    1.000000   0.000000
     3  H    1.030000   1.652746   0.000000
     4  H    1.050000   1.679507   1.698075   0.000000
     5  H    1.100000   1.710629   1.744599   1.755418   0.000000
     6  H    1.652746   1.030000   2.566114   1.957615   1.971065
     7  H    1.669189   1.050000   1.944264   1.967968   2.649989
     8  H    1.710629   1.100000   1.971065   2.656434   2.006804
                    6          7          8
     6  H    0.000000
     7  H    1.703232   0.000000
     8  H    1.744599   1.760747   0.000000
 Symmetry turned off by external request.
 Stoichiometry    C2H6
 Framework group  C1[X(C2H6)]
 Deg. of freedom    18
 Full point group                 C1      NOp   1
 Rotational constants (GHZ):     83.3295908     38.0007358     37.5284143
 Leave Link  202 at Thu May 27 13:49:10 2021, MaxMem=   13107200 cpu:       0.0
 (Enter /programs/64bit/g09/g09-gfortran/bin/l301.exe)
 Standard basis: 6-31+G(d,p) (6D, 7F)
 Ernie: Thresh=  0.10000D-02 Tol=  0.10000D-05 Strict=F.
 Integral buffers will be    131072 words long.
 Raffenetti 2 integral format.
 Two-electron integral symmetry is turned off.
    68 basis functions,   106 primitive gaussians,    68 cartesian basis functions
     9 alpha electrons        9 beta electrons
       nuclear repulsion energy        52.4311934971 Hartrees.
 IExCor=  402 DFT=T Ex+Corr=B3LYP ExCW=0 ScaHFX=  0.200000
 ScaDFX=  0.800000  0.720000  1.000000  0.810000 ScalE2=  1.000000  1.000000
 IRadAn=      0 IRanWt=     -1 IRanGd=            0 ICorTp=0
 NAtoms=    8 NActive=    8 NUniq=    8 SFac= 7.50D-01 NAtFMM=   80 NAOKFM=F Big=F
 Leave Link  301 at Thu May 27 13:49:10 2021, MaxMem=   13107200 cpu:       0.0
 (Enter /programs/64bit/g09/g09-gfortran/bin/l302.exe)
 NPDir=0 NMtPBC=     1 NCelOv=     1 NCel=       1 NClECP=     1 NCelD=      1
         NCelK=      1 NCelE2=     1 NClLst=     1 CellRange=     0.0.
 One-electron integrals computed using PRISM.
 NBasis=    68 RedAO= T  NBF=    68
 NBsUse=    68 1.00D-06 NBFU=    68
 Precomputing XC quadrature grid using
 IXCGrd= 2 IRadAn=           0 IRanWt=          -1 IRanGd=           0 AccXCQ= 1.00D-10.
 NRdTot=     510 NPtTot=       64808 NUsed=       68495 NTot=       68527
 NSgBfM=    68    68    68    68    68 NAtAll=     8     8.
 Leave Link  302 at Thu May 27 13:49:10 2021, MaxMem=   13107200 cpu:       0.1
 (Enter /programs/64bit/g09/g09-gfortran/bin/l303.exe)
 DipDrv:  MaxL=1.
 Leave Link  303 at Thu May 27 13:49:10 2021, MaxMem=   13107200 cpu:       0.0
 (Enter /programs/64bit/g09/g09-gfortran/bin/l401.exe)
 Harris functional with IExCor=  402 diagonalized for initial guess.
 ExpMin= 4.38D-02 ExpMax= 3.05D+03 ExpMxC= 4.57D+02 IAcc=2 IRadAn=         0 AccDes= 0.00D+00
 HarFok:  IExCor=  402 AccDes= 0.00D+00 IRadAn=         0 IDoV= 1
 ScaDFX=  1.000000  1.000000  1.000000  1.000000
 FoFCou: FMM=F IPFlag=           0 FMFlag=      100000 FMFlg1=           0
         NFxFlg=           0 DoJE=T BraDBF=F KetDBF=T FulRan=T
         Omega=  0.000000  0.000000  1.000000  0.000000  0.000000 ICntrl=     500 IOpCl=  0
         NMat0=    1 NMatS0=    1 NMatT0=    0 NMatD0=    1 NMtDS0=    0 NMtDT0=    0
         I1Cent=           4 NGrid=           0.
 Symmetry not used in FoFCou.
 Harris En= -79.6337089312325    
 Leave Link  401 at Thu May 27 13:49:11 2021, MaxMem=   13107200 cpu:       1.0
 (Enter /programs/64bit/g09/g09-gfortran/bin/l502.exe)
 Closed shell SCF:
 Requested convergence on RMS density matrix=1.00D-08 within 128 cycles.
 Requested convergence on MAX density matrix=1.00D-06.
 Requested convergence on             energy=1.00D-06.
 No special actions if energy rises.
 Using DIIS extrapolation, IDIIS=  1040.
 Two-electron integral symmetry not used.
        68410 words used for storage of precomputed grid.
 Keep R1 ints in memory in canonical form, NReq=3742795.
 IEnd=      101260 IEndB=      101260 NGot=    13107200 MDV=    10274214
 LenX=    10274214 LenY=    10269149
 Symmetry not used in FoFDir.
 MinBra= 0 MaxBra= 2 Meth= 1.
 IRaf=       0 NMat=   1 IRICut=       1 DoRegI=T DoRafI=F ISym2E= 0 JSym2E=0.

 Cycle   1  Pass 1  IDiag  1:
 E= -78.9735297568724    
 DIIS: error= 8.22D-02 at cycle   1 NSaved=   1.
 NSaved= 1 IEnMin= 1 EnMin= -78.9735297568724     IErMin= 1 ErrMin= 8.22D-02
 ErrMax= 8.22D-02 EMaxC= 1.00D-01 BMatC= 4.48D-01 BMatP= 4.48D-01
 IDIUse=3 WtCom= 1.78D-01 WtEn= 8.22D-01
 Coeff-Com:  0.100D+01
 Coeff-En:   0.100D+01
 Coeff:      0.100D+01
 Gap=     0.189 Goal=   None    Shift=    0.000
 GapD=    0.189 DampG=1.000 DampE=0.500 DampFc=0.5000 IDamp=-1.
 Damping current iteration by 5.00D-01
 RMSDP=2.27D-02 MaxDP=2.56D-01              OVMax= 4.32D-01

 Cycle   2  Pass 1  IDiag  1:
 E= -79.0921758454823     Delta-E=       -0.118646088610 Rises=F Damp=T
 DIIS: error= 2.59D-02 at cycle   2 NSaved=   2.
 NSaved= 2 IEnMin= 2 EnMin= -79.0921758454823     IErMin= 2 ErrMin= 2.59D-02
 ErrMax= 2.59D-02 EMaxC= 1.00D-01 BMatC= 2.59D-02 BMatP= 4.48D-01
 IDIUse=3 WtCom= 7.41D-01 WtEn= 2.59D-01
 Coeff-Com:  0.163D+00 0.837D+00
 Coeff-En:   0.342D+00 0.658D+00
 Coeff:      0.209D+00 0.791D+00
 Gap=     0.452 Goal=   None    Shift=    0.000
 RMSDP=6.91D-03 MaxDP=1.25D-01 DE=-1.19D-01 OVMax= 3.23D-01

 Cycle   3  Pass 1  IDiag  1:
 E= -79.3932494452928     Delta-E=       -0.301073599810 Rises=F Damp=F
 DIIS: error= 1.77D-03 at cycle   3 NSaved=   3.
 NSaved= 3 IEnMin= 3 EnMin= -79.3932494452928     IErMin= 3 ErrMin= 1.77D-03
 ErrMax= 1.77D-03 EMaxC= 1.00D-01 BMatC= 2.02D-04 BMatP= 2.59D-02
 IDIUse=3 WtCom= 9.82D-01 WtEn= 1.77D-02
 Coeff-Com:  0.318D-02 0.845D-02 0.988D+00
 Coeff-En:   0.000D+00 0.000D+00 0.100D+01
 Coeff:      0.313D-02 0.830D-02 0.989D+00
 Gap=     0.296 Goal=   None    Shift=    0.000
 RMSDP=7.57D-04 MaxDP=7.80D-03 DE=-3.01D-01 OVMax= 7.90D-03

 Cycle   4  Pass 1  IDiag  1:
 E= -79.3934729824317     Delta-E=       -0.000223537139 Rises=F Damp=F
 DIIS: error= 5.61D-04 at cycle   4 NSaved=   4.
 NSaved= 4 IEnMin= 4 EnMin= -79.3934729824317     IErMin= 4 ErrMin= 5.61D-04
 ErrMax= 5.61D-04 EMaxC= 1.00D-01 BMatC= 1.70D-05 BMatP= 2.02D-04
 IDIUse=3 WtCom= 9.94D-01 WtEn= 5.61D-03
 Coeff-Com:  0.331D-02-0.993D-02 0.913D-01 0.915D+00
 Coeff-En:   0.000D+00 0.000D+00 0.000D+00 0.100D+01
 Coeff:      0.329D-02-0.987D-02 0.908D-01 0.916D+00
 Gap=     0.298 Goal=   None    Shift=    0.000
 RMSDP=8.32D-05 MaxDP=1.14D-03 DE=-2.24D-04 OVMax= 1.50D-03

 Cycle   5  Pass 1  IDiag  1:
 E= -79.3934923952673     Delta-E=       -0.000019412836 Rises=F Damp=F
 DIIS: error= 6.85D-05 at cycle   5 NSaved=   5.
 NSaved= 5 IEnMin= 5 EnMin= -79.3934923952673     IErMin= 5 ErrMin= 6.85D-05
 ErrMax= 6.85D-05 EMaxC= 1.00D-01 BMatC= 2.45D-07 BMatP= 1.70D-05
 IDIUse=1 WtCom= 1.00D+00 WtEn= 0.00D+00
 Coeff-Com:  0.678D-03-0.140D-02 0.107D-01 0.569D-01 0.933D+00
 Coeff:      0.678D-03-0.140D-02 0.107D-01 0.569D-01 0.933D+00
 Gap=     0.298 Goal=   None    Shift=    0.000
 RMSDP=1.42D-05 MaxDP=1.28D-04 DE=-1.94D-05 OVMax= 1.66D-04

 Cycle   6  Pass 1  IDiag  1:
 E= -79.3934926327946     Delta-E=       -0.000000237527 Rises=F Damp=F
 DIIS: error= 1.68D-05 at cycle   6 NSaved=   6.
 NSaved= 6 IEnMin= 6 EnMin= -79.3934926327946     IErMin= 6 ErrMin= 1.68D-05
 ErrMax= 1.68D-05 EMaxC= 1.00D-01 BMatC= 1.95D-08 BMatP= 2.45D-07
 IDIUse=1 WtCom= 1.00D+00 WtEn= 0.00D+00
 Coeff-Com:  0.169D-03-0.198D-03 0.106D-02-0.166D-01 0.338D+00 0.677D+00
 Coeff:      0.169D-03-0.198D-03 0.106D-02-0.166D-01 0.338D+00 0.677D+00
 Gap=     0.298 Goal=   None    Shift=    0.000
 RMSDP=5.16D-06 MaxDP=4.86D-05 DE=-2.38D-07 OVMax= 4.31D-05

 Cycle   7  Pass 1  IDiag  1:
 E= -79.3934926523613     Delta-E=       -0.000000019567 Rises=F Damp=F
 DIIS: error= 2.30D-06 at cycle   7 NSaved=   7.
 NSaved= 7 IEnMin= 7 EnMin= -79.3934926523613     IErMin= 7 ErrMin= 2.30D-06
 ErrMax= 2.30D-06 EMaxC= 1.00D-01 BMatC= 2.99D-10 BMatP= 1.95D-08
 IDIUse=1 WtCom= 1.00D+00 WtEn= 0.00D+00
 Coeff-Com:  0.120D-04-0.418D-05-0.641D-04-0.258D-02-0.656D-03 0.490D-01
 Coeff-Com:  0.954D+00
 Coeff:      0.120D-04-0.418D-05-0.641D-04-0.258D-02-0.656D-03 0.490D-01
 Coeff:      0.954D+00
 Gap=     0.298 Goal=   None    Shift=    0.000
 RMSDP=4.18D-07 MaxDP=3.70D-06 DE=-1.96D-08 OVMax= 5.54D-06

 Cycle   8  Pass 1  IDiag  1:
 E= -79.3934926526595     Delta-E=       -0.000000000298 Rises=F Damp=F
 DIIS: error= 2.02D-07 at cycle   8 NSaved=   8.
 NSaved= 8 IEnMin= 8 EnMin= -79.3934926526595     IErMin= 8 ErrMin= 2.02D-07
 ErrMax= 2.02D-07 EMaxC= 1.00D-01 BMatC= 4.36D-12 BMatP= 2.99D-10
 IDIUse=1 WtCom= 1.00D+00 WtEn= 0.00D+00
 Coeff-Com:  0.149D-05 0.129D-05-0.341D-04-0.431D-03-0.560D-02 0.253D-02
 Coeff-Com:  0.261D+00 0.743D+00
 Coeff:      0.149D-05 0.129D-05-0.341D-04-0.431D-03-0.560D-02 0.253D-02
 Coeff:      0.261D+00 0.743D+00
 Gap=     0.298 Goal=   None    Shift=    0.000
 RMSDP=5.11D-08 MaxDP=5.96D-07 DE=-2.98D-10 OVMax= 5.41D-07

 Cycle   9  Pass 1  IDiag  1:
 E= -79.3934926526635     Delta-E=       -0.000000000004 Rises=F Damp=F
 DIIS: error= 6.30D-08 at cycle   9 NSaved=   9.
 NSaved= 9 IEnMin= 9 EnMin= -79.3934926526635     IErMin= 9 ErrMin= 6.30D-08
 ErrMax= 6.30D-08 EMaxC= 1.00D-01 BMatC= 2.82D-13 BMatP= 4.36D-12
 IDIUse=1 WtCom= 1.00D+00 WtEn= 0.00D+00
 Coeff-Com:  0.229D-06 0.634D-06-0.109D-04-0.638D-04-0.208D-02-0.766D-03
 Coeff-Com:  0.645D-01 0.285D+00 0.654D+00
 Coeff:      0.229D-06 0.634D-06-0.109D-04-0.638D-04-0.208D-02-0.766D-03
 Coeff:      0.645D-01 0.285D+00 0.654D+00
 Gap=     0.298 Goal=   None    Shift=    0.000
 RMSDP=1.27D-08 MaxDP=1.38D-07 DE=-3.98D-12 OVMax= 1.19D-07

 Cycle  10  Pass 1  IDiag  1:
 E= -79.3934926526637     Delta-E=       -0.000000000000 Rises=F Damp=F
 DIIS: error= 3.84D-09 at cycle  10 NSaved=  10.
 NSaved=10 IEnMin=10 EnMin= -79.3934926526637     IErMin=10 ErrMin= 3.84D-09
 ErrMax= 3.84D-09 EMaxC= 1.00D-01 BMatC= 1.17D-15 BMatP= 2.82D-13
 IDIUse=1 WtCom= 1.00D+00 WtEn= 0.00D+00
 Coeff-Com: -0.261D-07 0.270D-07 0.280D-06 0.153D-04 0.403D-04-0.143D-03
 Coeff-Com: -0.445D-02-0.569D-02 0.411D-01 0.969D+00
 Coeff:     -0.261D-07 0.270D-07 0.280D-06 0.153D-04 0.403D-04-0.143D-03
 Coeff:     -0.445D-02-0.569D-02 0.411D-01 0.969D+00
 Gap=     0.298 Goal=   None    Shift=    0.000
 RMSDP=3.48D-09 MaxDP=4.68D-08 DE=-2.27D-13 OVMax= 1.62D-08

 SCF Done:  E(RB3LYP) =  -79.3934926527     A.U. after   10 cycles
             Convg  =    0.3478D-08             -V/T =  1.9730
 KE= 8.159246467501D+01 PE=-2.896543918471D+02 EE= 7.623724102232D+01
 Leave Link  502 at Thu May 27 13:49:24 2021, MaxMem=   13107200 cpu:      11.2
 (Enter /programs/64bit/g09/g09-gfortran/bin/l601.exe)
 Copying SCF densities to generalized density rwf, IOpCl= 0 IROHF=0.

 **********************************************************************

            Population analysis using the SCF density.

 **********************************************************************

 Alpha  occ. eigenvalues --  -10.14679 -10.13308  -0.91051  -0.57337  -0.55295
 Alpha  occ. eigenvalues --   -0.54685  -0.42984  -0.28478  -0.28004
 Alpha virt. eigenvalues --    0.01791   0.03016   0.03208   0.04245   0.07698
 Alpha virt. eigenvalues --    0.09429   0.09458   0.15457   0.19363   0.19614
 Alpha virt. eigenvalues --    0.20915   0.22060   0.28620   0.32477   0.42789
 Alpha virt. eigenvalues --    0.47513   0.65406   0.65665   0.66665   0.67492
 Alpha virt. eigenvalues --    0.86170   0.86759   0.99915   1.01610   1.03552
 Alpha virt. eigenvalues --    1.09808   1.21722   1.38428   1.42541   1.42945
 Alpha virt. eigenvalues --    1.47932   1.83984   1.86434   1.99354   2.01835
 Alpha virt. eigenvalues --    2.03249   2.06674   2.23721   2.28780   2.39376
 Alpha virt. eigenvalues --    2.49992   2.58348   2.62946   2.63776   2.65676
 Alpha virt. eigenvalues --    2.83680   2.96302   3.00370   3.15058   3.19570
 Alpha virt. eigenvalues --    3.28179   3.36193   3.52226   3.56337   3.79040
 Alpha virt. eigenvalues --    3.84076   3.99747   4.32572   4.94648
          Condensed to atoms (all electrons):
              1          2          3          4          5          6
     1  C    5.275384  -0.023099   0.477712   0.454766   0.493342  -0.122024
     2  C   -0.023099   5.267650  -0.121926  -0.096216  -0.137750   0.477427
     3  H    0.477712  -0.121926   0.672231  -0.048981  -0.045184   0.028492
     4  H    0.454766  -0.096216  -0.048981   0.674452  -0.045748  -0.036145
     5  H    0.493342  -0.137750  -0.045184  -0.045748   0.683265  -0.036275
     6  H   -0.122024   0.477427   0.028492  -0.036145  -0.036275   0.671017
     7  H   -0.099994   0.456272  -0.036867  -0.035403   0.025854  -0.048359
     8  H   -0.142181   0.498510  -0.036645   0.025447  -0.035394  -0.045504
              7          8
     1  C   -0.099994  -0.142181
     2  C    0.456272   0.498510
     3  H   -0.036867  -0.036645
     4  H   -0.035403   0.025447
     5  H    0.025854  -0.035394
     6  H   -0.048359  -0.045504
     7  H    0.676331  -0.045099
     8  H   -0.045099   0.681610
 Mulliken atomic charges:
              1
     1  C   -0.313905
     2  C   -0.320869
     3  H    0.111167
     4  H    0.107827
     5  H    0.097890
     6  H    0.111370
     7  H    0.107265
     8  H    0.099255
 Sum of Mulliken atomic charges =  -0.00000
 Mulliken charges with hydrogens summed into heavy atoms:
              1
     1  C    0.002979
     2  C   -0.002979
 Sum of Mulliken charges with hydrogens summed into heavy atoms =  -0.00000
 Electronic spatial extent (au):  <R**2>=             97.5636
 Charge=             -0.0000 electrons
 Dipole moment (field-independent basis, Debye):
    X=              0.0024    Y=             -0.1199    Z=              0.0005  Tot=              0.1199
 Quadrupole moment (field-independent basis, Debye-Ang):
   XX=            -14.2609   YY=            -14.3275   ZZ=            -17.0573
   XY=             -0.0013   XZ=             -0.1009   YZ=             -0.0337
 Traceless Quadrupole moment (field-independent basis, Debye-Ang):
   XX=              0.9543   YY=              0.8877   ZZ=             -1.8420
   XY=             -0.0013   XZ=             -0.1009   YZ=             -0.0337
 Octapole moment (field-independent basis, Debye-Ang**2):
  XXX=             -0.0097  YYY=             -0.6072  ZZZ=            -25.5562  XYY=              0.0103
  XXY=             -0.2042  XXZ=             -7.1103  XZZ=             -0.1142  YZZ=             -0.3659
  YYZ=             -7.1386  XYZ=             -0.0700
 Hexadecapole moment (field-independent basis, Debye-Ang**3):
 XXXX=            -28.7899 YYYY=            -30.2916 ZZZZ=            -85.8080 XXXY=              0.0146
 XXXZ=             -0.8381 YYYX=              0.0159 YYYZ=             -0.2792 ZZZX=             -0.7996
 ZZZY=             -0.5018 XXYY=             -9.8267 XXZZ=            -18.9786 YYZZ=            -19.2802
 XXYZ=             -0.0942 YYXZ=             -0.0784 ZZXY=             -0.0533
 N-N= 5.243119349713D+01 E-N=-2.896543916503D+02  KE= 8.159246467501D+01
 No NMR shielding tensors so no spin-rotation constants.
 Leave Link  601 at Thu May 27 13:49:24 2021, MaxMem=   13107200 cpu:       0.1
 (Enter /programs/64bit/g09/g09-gfortran/bin/l701.exe)
 Compute integral first derivatives.
 ... and contract with generalized density number  0.
 Leave Link  701 at Thu May 27 13:49:24 2021, MaxMem=   13107200 cpu:       0.1
 (Enter /programs/64bit/g09/g09-gfortran/bin/l702.exe)
 L702 exits ... SP integral derivatives will be done elsewhere.
 Leave Link  702 at Thu May 27 13:49:24 2021, MaxMem=   13107200 cpu:       0.0
 (Enter /programs/64bit/g09/g09-gfortran/bin/l703.exe)
 Compute integral first derivatives, UseDBF=F ICtDFT=           0.
 Integral derivatives from FoFDir, PRISM(SPDF).
 Calling FoFJK, ICntrl=      2127 FMM=F ISym2X=0 I1Cent= 0 IOpClX= 0 NMat=1 NMatS=1 NMatT=0.
 FoFCou: FMM=F IPFlag=           0 FMFlag=      100000 FMFlg1=         800
         NFxFlg=           0 DoJE=F BraDBF=F KetDBF=F FulRan=T
         Omega=  0.000000  0.000000  1.000000  0.000000  0.000000 ICntrl=    2127 IOpCl=  0
         NMat0=    1 NMatS0=    1 NMatT0=    0 NMatD0=    1 NMtDS0=    0 NMtDT0=    0
         I1Cent=           0 NGrid=           0.
 Symmetry not used in FoFCou.
 Leave Link  703 at Thu May 27 13:49:27 2021, MaxMem=   13107200 cpu:       2.4
 (Enter /programs/64bit/g09/g09-gfortran/bin/l716.exe)
 Dipole        = 9.31339277D-04-4.71538804D-02 1.86749143D-04
 -------------------------------------------------------------------
 Center     Atomic                   Forces (Hartrees/Bohr)
 Number     Number              X              Y              Z
 -------------------------------------------------------------------
      1        6          -0.023004376    0.027871546   -1.257983109
      2        6           0.022756471    0.024891073    1.255943295
      3        1           0.048470005    0.000958200   -0.055030045
      4        1          -0.017698884   -0.028646375   -0.044979051
      5        1          -0.001304576    0.002024402   -0.034796913
      6        1          -0.048287792    0.000378883    0.055089962
      7        1           0.017656492   -0.028763138    0.047116487
      8        1           0.001412659    0.001285409    0.034639375
 -------------------------------------------------------------------
 Cartesian Forces:  Max     1.257983109 RMS     0.364122233
 -----------------------------------------------------------------------------------------------
                       Internal Coordinate Forces (Hartree/Bohr or radian)
  Cent   Atom   N1       Length/X         N2         Alpha/Y        N3         Beta/Z          J
 -----------------------------------------------------------------------------------------------
      1  C 
      2  C        1   1.392789(     1)
      3  H        1   0.063745(     2)      2   0.070561(     8)
      4  H        1   0.047012(     3)      2   0.061024(     9)      3   0.001873(    14)     0
      5  H        1   0.013603(     4)      2   0.066764(    10)      3  -0.000231(    15)     0
      6  H        2   0.063593(     5)      1   0.070787(    11)      3  -0.000132(    16)     0
      7  H        2   0.047239(     6)      1   0.066601(    12)      6   0.001706(    17)     0
      8  H        2   0.012998(     7)      1   0.066851(    13)      6  -0.001141(    18)     0
 -----------------------------------------------------------------------------------------------
 Internal  Forces:  Max     1.392789119 RMS     0.331649753
 Force constants in Cartesian coordinates: 
                1             2             3             4             5 
      1  0.101488D+01
      2  0.150109D-01  0.971078D+00
      3 -0.139238D-01  0.185865D-01  0.367091D+01
      4 -0.265879D+00  0.657510D-03 -0.182153D-02  0.101456D+01
      5  0.735435D-03 -0.265653D+00  0.140229D-02 -0.182287D-01  0.973686D+00
      6 -0.170899D-02 -0.159618D-02 -0.332740D+01 -0.162624D-01 -0.145024D-01
      7 -0.392477D+00 -0.179379D-03  0.105713D+00  0.142170D-01 -0.261670D-05
      8  0.110042D-02 -0.172547D+00 -0.963306D-03  0.833476D-03  0.215043D-01
      9  0.102589D+00 -0.520953D-03 -0.120789D+00  0.412893D-01 -0.759945D-05
     10 -0.216830D+00 -0.822939D-01 -0.499227D-01  0.219046D-01 -0.453873D-02
     11 -0.843331D-01 -0.315087D+00 -0.886671D-01 -0.418540D-02  0.172739D-01
     12 -0.492725D-01 -0.860552D-01 -0.119213D+00 -0.201325D-01 -0.348662D-01
     13 -0.192975D+00  0.666273D-01 -0.400450D-01  0.183904D-01  0.404849D-02
     14  0.673873D-01 -0.271322D+00  0.696416D-01  0.293012D-02  0.156455D-01
     15 -0.393930D-01  0.679896D-01 -0.103515D+00 -0.193353D-01  0.334715D-01
     16  0.142156D-01  0.000000D+00  0.000000D+00 -0.392588D+00  0.898297D-04
     17 -0.131863D-02  0.217596D-01  0.000000D+00 -0.101438D-02 -0.173738D+00
     18  0.412850D-01 -0.143243D-05  0.000000D+00  0.102269D+00  0.260884D-03
     19  0.210774D-01  0.400221D-02  0.000000D+00 -0.217085D+00  0.845243D-01
     20  0.411771D-02  0.162543D-01  0.000000D+00  0.862214D-01 -0.317335D+00
     21 -0.202500D-01  0.350700D-01  0.000000D+00 -0.469638D-01  0.820739D-01
     22  0.179857D-01 -0.382413D-02  0.000000D+00 -0.193516D+00 -0.666280D-01
     23 -0.270012D-02  0.155163D-01  0.000000D+00 -0.672140D-01 -0.271384D+00
     24 -0.193260D-01 -0.334724D-01  0.000000D+00 -0.390427D-01 -0.678323D-01
                6             7             8             9            10 
      6  0.366514D+01
      7  0.000000D+00  0.389210D+00
      8  0.000000D+00  0.108995D-03  0.129335D+00
      9  0.000000D+00 -0.112078D+00  0.316543D-03  0.102304D+00
     10  0.000000D+00 -0.568729D-02 -0.301030D-01 -0.165171D-01  0.183898D+00
     11  0.000000D+00  0.189465D-02  0.104339D-01  0.550245D-02  0.101254D+00
     12  0.000000D+00  0.330476D-02  0.165275D-01  0.959772D-02  0.542516D-01
     13  0.000000D+00 -0.526257D-02  0.289015D-01 -0.152836D-01  0.174342D-01
     14  0.000000D+00 -0.182164D-02  0.103722D-01 -0.529044D-02  0.149117D-01
     15  0.000000D+00  0.306015D-02 -0.158807D-01  0.888732D-02  0.121883D-01
     16  0.105948D+00  0.000000D+00  0.000000D+00  0.000000D+00  0.000000D+00
     17  0.767532D-03  0.000000D+00  0.217893D-01  0.000000D+00  0.186254D-01
     18 -0.120106D+00  0.000000D+00  0.000000D+00  0.000000D+00  0.000000D+00
     19 -0.479709D-01  0.000000D+00 -0.185107D-01  0.000000D+00 -0.158229D-01
     20  0.852369D-01  0.000000D+00 -0.106871D-01  0.000000D+00 -0.913533D-02
     21 -0.114727D+00  0.000000D+00  0.000000D+00  0.000000D+00  0.000000D+00
     22 -0.400058D-01  0.000000D+00  0.176693D-01  0.000000D+00  0.151036D-01
     23 -0.699058D-01  0.000000D+00 -0.102014D-01  0.000000D+00 -0.872009D-02
     24 -0.102907D+00  0.000000D+00  0.000000D+00  0.000000D+00  0.000000D+00
               11            12            13            14            15 
     11  0.300811D+00
     12  0.939793D-01  0.100627D+00
     13 -0.150454D-01  0.118487D-01  0.161730D+00
     14 -0.129863D-01  0.104146D-01 -0.838014D-01  0.258712D+00
     15 -0.108146D-01  0.898860D-02  0.434799D-01 -0.747658D-01  0.856388D-01
     16  0.000000D+00  0.000000D+00  0.000000D+00  0.000000D+00  0.000000D+00
     17 -0.107534D-01  0.000000D+00 -0.176693D-01 -0.102014D-01  0.000000D+00
     18  0.000000D+00  0.000000D+00  0.000000D+00  0.000000D+00  0.000000D+00
     19  0.913533D-02  0.000000D+00  0.150106D-01  0.866636D-02  0.000000D+00
     20  0.527428D-02  0.000000D+00  0.866636D-02  0.500352D-02  0.000000D+00
     21  0.000000D+00  0.000000D+00  0.000000D+00  0.000000D+00  0.000000D+00
     22 -0.872009D-02  0.000000D+00 -0.143283D-01 -0.827243D-02  0.000000D+00
     23  0.503454D-02  0.000000D+00  0.827243D-02  0.477609D-02  0.000000D+00
     24  0.000000D+00  0.000000D+00  0.000000D+00  0.000000D+00  0.000000D+00
               16            17            18            19            20 
     16  0.389153D+00
     17 -0.172829D-05  0.129905D+00
     18 -0.112244D+00 -0.501933D-05  0.101820D+00
     19 -0.551652D-02  0.302794D-01 -0.160211D-01  0.184491D+00
     20 -0.190425D-02  0.108660D-01 -0.553036D-02 -0.103032D+00  0.303456D+00
     21  0.322114D-02 -0.166395D-01  0.935486D-02  0.520143D-01 -0.901053D-01
     22 -0.526422D-02 -0.289008D-01 -0.152884D-01  0.178456D-01  0.150657D-01
     23  0.181665D-02  0.103733D-01  0.527592D-02 -0.150654D-01 -0.128327D-01
     24  0.307512D-02  0.158770D-01  0.893080D-02  0.119777D-01  0.103987D-01
               21            22            23            24 
     21  0.966110D-01
     22  0.119783D-01  0.162174D+00
     23 -0.103991D-01  0.836106D-01  0.258717D+00
     24  0.876117D-02  0.433158D-01  0.750290D-01  0.852150D-01
 Force constants in internal coordinates: 
                1             2             3             4             5 
      1  0.332740D+01
      2  0.000000D+00  0.427802D+00
      3  0.000000D+00  0.000000D+00  0.398767D+00
      4  0.000000D+00  0.000000D+00  0.000000D+00  0.336821D+00
      5  0.000000D+00  0.000000D+00  0.000000D+00  0.000000D+00  0.427802D+00
      6  0.000000D+00  0.000000D+00  0.000000D+00  0.000000D+00  0.000000D+00
      7  0.000000D+00  0.000000D+00  0.000000D+00  0.000000D+00  0.000000D+00
      8  0.000000D+00  0.000000D+00  0.000000D+00  0.000000D+00  0.000000D+00
      9  0.000000D+00  0.000000D+00  0.000000D+00  0.000000D+00  0.000000D+00
     10  0.000000D+00  0.000000D+00  0.000000D+00  0.000000D+00  0.000000D+00
     11  0.000000D+00  0.000000D+00  0.000000D+00  0.000000D+00  0.000000D+00
     12  0.000000D+00  0.000000D+00  0.000000D+00  0.000000D+00  0.000000D+00
     13  0.000000D+00  0.000000D+00  0.000000D+00  0.000000D+00  0.000000D+00
     14  0.000000D+00  0.000000D+00  0.000000D+00  0.000000D+00  0.000000D+00
     15  0.000000D+00  0.000000D+00  0.000000D+00  0.000000D+00  0.000000D+00
     16  0.000000D+00  0.000000D+00  0.000000D+00  0.000000D+00  0.000000D+00
     17  0.000000D+00  0.000000D+00  0.000000D+00  0.000000D+00  0.000000D+00
     18  0.000000D+00  0.000000D+00  0.000000D+00  0.000000D+00  0.000000D+00
                6             7             8             9            10 
      6  0.398767D+00
      7  0.000000D+00  0.336821D+00
      8  0.000000D+00  0.000000D+00  0.241377D+00
      9  0.000000D+00  0.000000D+00  0.417192D-01  0.240677D+00
     10  0.000000D+00  0.000000D+00  0.402215D-01  0.417269D-01  0.241363D+00
     11  0.000000D+00  0.000000D+00  0.000000D+00  0.000000D+00  0.000000D+00
     12  0.000000D+00  0.000000D+00  0.000000D+00  0.000000D+00  0.000000D+00
     13  0.000000D+00  0.000000D+00  0.000000D+00  0.000000D+00  0.000000D+00
     14  0.000000D+00  0.000000D+00 -0.654641D-01 -0.251402D-04  0.654335D-01
     15  0.000000D+00  0.000000D+00  0.642557D-01 -0.641969D-01 -0.117449D-02
     16  0.000000D+00  0.000000D+00  0.000000D+00  0.000000D+00  0.000000D+00
     17  0.000000D+00  0.000000D+00  0.000000D+00  0.000000D+00  0.000000D+00
     18  0.000000D+00  0.000000D+00  0.000000D+00  0.000000D+00  0.000000D+00
               11            12            13            14            15 
     11  0.239328D+00
     12  0.404130D-01  0.239324D+00
     13  0.404183D-01  0.404205D-01  0.239315D+00
     14  0.000000D+00  0.000000D+00  0.000000D+00  0.436090D+00
     15  0.000000D+00  0.000000D+00  0.000000D+00 -0.107353D+00  0.438069D+00
     16 -0.288222D-05  0.401933D-05 -0.113033D-05  0.221400D+00  0.221400D+00
     17 -0.642650D-01 -0.271301D-04  0.642294D-01  0.737999D-01  0.737999D-01
     18  0.642431D-01 -0.642325D-01  0.811731D-05  0.737999D-01  0.737999D-01
               16            17            18 
     16  0.664199D+00
     17  0.221397D+00  0.439989D+00
     18  0.221411D+00 -0.109292D+00  0.439997D+00
 Leave Link  716 at Thu May 27 13:49:27 2021, MaxMem=   13107200 cpu:       0.0
 (Enter /programs/64bit/g09/g09-gfortran/bin/l103.exe)

 GradGradGradGradGradGradGradGradGradGradGradGradGradGradGradGradGradGrad
 Berny optimization.
 Search for a local minimum.
 Step number   1 out of a maximum of    2
 All quantities printed in internal units (Hartrees-Bohrs-Radians)
 Second derivative matrix not updated -- first step.
 The second derivative matrix:
                          d1        a1        t1        d2        a2
           d1           3.32740
           a1           0.00000   0.24138
           t1           0.00000  -0.06546   0.43609
           d2           0.00000   0.00000   0.00000   0.42780
           a2          -0.00000   0.04172  -0.00003  -0.00000   0.24068
           t2           0.00000   0.06426  -0.10735  -0.00000  -0.06420
           d3           0.00000   0.00000   0.00000   0.00000   0.00000
           d4          -0.00000   0.00000  -0.00000   0.00000  -0.00000
           a3           0.00000   0.04022   0.06543  -0.00000   0.04173
           d5          -0.00000   0.00000   0.00000   0.00000  -0.00000
           a4          -0.00000   0.00000  -0.00000   0.00000  -0.00000
           t3          -0.00000   0.00000   0.22140   0.00000   0.00000
           d6          -0.00000   0.00000  -0.00000   0.00000  -0.00000
           a5          -0.00000   0.00000   0.00000   0.00000  -0.00000
           t4          -0.00000   0.00000   0.07380   0.00000   0.00000
           d7          -0.00000   0.00000   0.00000   0.00000   0.00000
           a6          -0.00000   0.00000  -0.00000   0.00000  -0.00000
           t5          -0.00000   0.00000   0.07380   0.00000   0.00000
                          t2        d3        d4        a3        d5
           t2           0.43807
           d3           0.00000   0.39877
           d4           0.00000   0.00000   0.33682
           a3          -0.00117   0.00000  -0.00000   0.24136
           d5           0.00000   0.00000   0.00000   0.00000   0.42780
           a4          -0.00000   0.00000  -0.00000  -0.00000  -0.00000
           t3           0.22140  -0.00000   0.00000   0.00000  -0.00000
           d6          -0.00000  -0.00000   0.00000  -0.00000  -0.00000
           a5           0.00000   0.00000  -0.00000   0.00000  -0.00000
           t4           0.07380  -0.00000   0.00000  -0.00000  -0.00000
           d7          -0.00000  -0.00000  -0.00000   0.00000  -0.00000
           a6           0.00000  -0.00000   0.00000  -0.00000  -0.00000
           t5           0.07380  -0.00000   0.00000  -0.00000  -0.00000
                          a4        t3        d6        a5        t4
           a4           0.23933
           t3          -0.00000   0.66420
           d6           0.00000  -0.00000   0.39877
           a5           0.04041   0.00000  -0.00000   0.23932
           t4          -0.06427   0.22140  -0.00000  -0.00003   0.43999
           d7           0.00000   0.00000   0.00000  -0.00000  -0.00000
           a6           0.04042  -0.00000   0.00000   0.04042   0.06423
           t5           0.06424   0.22141  -0.00000  -0.06423  -0.10929
                          d7        a6        t5
           d7           0.33682
           a6           0.00000   0.23931
           t5           0.00000   0.00001   0.44000
     Eigenvalues --- 1000.000001000.000001000.000001000.000001000.00000
     Eigenvalues --- 1000.000001000.000001000.000001000.000001000.00000
     Eigenvalues --- 1000.000001000.000001000.000001000.000001000.00000
     Eigenvalues --- 1000.000001000.000001000.00000
 Angle between quadratic step and forces=  90.00 degrees.
 Linear search not attempted -- first point.
 Variable       Old X    -DE/DX   Delta X   Delta X   Delta X     New X
                                 (Linear)    (Quad)   (Total)
    d1        1.88973   1.39279   0.00000   0.00000   0.00000   1.88973
    a1        1.90241   0.07056   0.00000   0.00000   0.00000   1.90241
    t1        2.09440   0.00187   0.00000   0.00000   0.00000   2.09440
    d2        1.94642   0.06375   0.00000   0.00000   0.00000   1.94642
    a2        1.91986   0.06102   0.00000   0.00000   0.00000   1.91986
    t2       -2.09440  -0.00023   0.00000   0.00000   0.00000  -2.09440
    d3        1.98421   0.04701   0.00000   0.00000   0.00000   1.98421
    d4        2.07870   0.01360   0.00000   0.00000   0.00000   2.07870
    a3        1.90241   0.06676   0.00000   0.00000   0.00000   1.90241
    d5        1.94642   0.06359   0.00000   0.00000   0.00000   1.94642
    a4        1.90241   0.07079   0.00000   0.00000   0.00000   1.90241
    t3        3.14159  -0.00013   0.00000   0.00000   0.00000   3.14159
    d6        1.98421   0.04724   0.00000   0.00000   0.00000   1.98421
    a5        1.90241   0.06660   0.00000   0.00000   0.00000   1.90241
    t4        2.09440   0.00171   0.00000   0.00000   0.00000   2.09440
    d7        2.07870   0.01300   0.00000   0.00000   0.00000   2.07870
    a6        1.90241   0.06685   0.00000   0.00000   0.00000   1.90241
    t5       -2.09440  -0.00114   0.00000   0.00000   0.00000  -2.09440
         Item               Value     Threshold  Converged?
 Maximum Force            0.000000     0.000450     YES
 RMS     Force            0.000000     0.000300     YES
 Maximum Displacement     0.000000     0.001800     YES
 RMS     Displacement     0.000000     0.001200     YES
 Predicted change in Energy=-0.000000D+00
 Optimization completed.
    -- Stationary point found.
                       ----------------------------
                       !   Optimized Parameters   !
                       ! (Angstroms and Degrees)  !
 ----------------------                            ----------------------
 !      Name          Value   Derivative information (Atomic Units)     !
 ------------------------------------------------------------------------
 !       d1          1.0      -DE/DX =    1.3928                        !
 !       a1        109.0      -DE/DX =    0.0706                        !
 !       t1        120.0      -DE/DX =    0.0019                        !
 !       d2          1.03     -DE/DX =    0.0637                        !
 !       a2        110.0      -DE/DX =    0.061                         !
 !       t2       -120.0      -DE/DX =   -0.0002                        !
 !       d3          1.05     -DE/DX =    0.047                         !
 !       d4          1.1      -DE/DX =    0.0136                        !
 !       a3        109.0      -DE/DX =    0.0668                        !
 !       d5          1.03     -DE/DX =    0.0636                        !
 !       a4        109.0      -DE/DX =    0.0708                        !
 !       t3        180.0      -DE/DX =   -0.0001                        !
 !       d6          1.05     -DE/DX =    0.0472                        !
 !       a5        109.0      -DE/DX =    0.0666                        !
 !       t4        120.0      -DE/DX =    0.0017                        !
 !       d7          1.1      -DE/DX =    0.013                         !
 !       a6        109.0      -DE/DX =    0.0669                        !
 !       t5       -120.0      -DE/DX =   -0.0011                        !
 ------------------------------------------------------------------------
 GradGradGradGradGradGradGradGradGradGradGradGradGradGradGradGradGradGrad

 Leave Link  103 at Thu May 27 13:49:27 2021, MaxMem=   13107200 cpu:       0.0
 (Enter /programs/64bit/g09/g09-gfortran/bin/l9999.exe)
 1\1\GINC-MOLMOD\Force\RB3LYP\6-31+G(d,p)\C2H6\OSPITE\27-May-2021\1\\#p
  b3lyp/6-31+g(d,p) force nosym\\c2h6 molecule\\0,1\C\C,1,d1\H,1,d2,2,a
 1\H,1,d3,2,a2,3,t1,0\H,1,d4,2,a3,3,t2,0\H,2,d5,1,a4,3,t3,0\H,2,d6,1,a5
 ,6,t4,0\H,2,d7,1,a6,6,t5,0\\d1=1.\a1=109.\t1=120.\d2=1.03\a2=110.\t2=-
 120.\d3=1.05\d4=1.1\a3=109.\d5=1.03\a4=109.\t3=180.\d6=1.05\a5=109.\t4
 =120.\d7=1.1\a6=109.\t5=-120.\\Version=EM64L-G09RevA.02\HF=-79.3934927
 \RMSD=3.478e-09\RMSF=3.641e-01\Dipole=0.0009313,-0.0471539,0.0001867\Q
 uadrupole=0.7095135,0.6600051,-1.3695187,-0.0009495,-0.0750002,-0.0250
 564\PG=C01 [X(C2H6)]\\@


 THE ... SCIENTISTS WERE WRONG ... THE MOST PERSISTENT PRINCIPLES 
 OF THE UNIVERSE WERE ACCIDENT AND ERROR.

                          -- FRANK HERBERT IN DUNE
 Job cpu time:  0 days  0 hours  0 minutes 15.2 seconds.
 File lengths (MBytes):  RWF=      5 Int=      0 D2E=      0 Chk=      1 Scr=      1
 Normal termination of Gaussian 09 at Thu May 27 13:49:27 2021.
