 Entering Gaussian System, Link 0=g09
 Input=c2h6_031.com
 Output=c2h6_031.log
 Initial command:
 /programs/64bit/g09/g09-gfortran/bin/l1.exe /data/scratch/Gau-17659.inp -scrdir=/data/scratch/
 Entering Link 1 = /programs/64bit/g09/g09-gfortran/bin/l1.exe PID=     17660.
  
 Copyright (c) 1988,1990,1992,1993,1995,1998,2003,2009, Gaussian, Inc.
                  All Rights Reserved.
  
 This is part of the Gaussian(R) 09 program.  It is based on
 the Gaussian(R) 03 system (copyright 2003, Gaussian, Inc.),
 the Gaussian(R) 98 system (copyright 1998, Gaussian, Inc.),
 the Gaussian(R) 94 system (copyright 1995, Gaussian, Inc.),
 the Gaussian 92(TM) system (copyright 1992, Gaussian, Inc.),
 the Gaussian 90(TM) system (copyright 1990, Gaussian, Inc.),
 the Gaussian 88(TM) system (copyright 1988, Gaussian, Inc.),
 the Gaussian 86(TM) system (copyright 1986, Carnegie Mellon
 University), and the Gaussian 82(TM) system (copyright 1983,
 Carnegie Mellon University). Gaussian is a federally registered
 trademark of Gaussian, Inc.
  
 This software contains proprietary and confidential information,
 including trade secrets, belonging to Gaussian, Inc.
  
 This software is provided under written license and may be
 used, copied, transmitted, or stored only in accord with that
 written license.
  
 The following legend is applicable only to US Government
 contracts under FAR:
  
                    RESTRICTED RIGHTS LEGEND
  
 Use, reproduction and disclosure by the US Government is
 subject to restrictions as set forth in subparagraphs (a)
 and (c) of the Commercial Computer Software - Restricted
 Rights clause in FAR 52.227-19.
  
 Gaussian, Inc.
 340 Quinnipiac St., Bldg. 40, Wallingford CT 06492
  
  
 ---------------------------------------------------------------
 Warning -- This program may not be used in any manner that
 competes with the business of Gaussian, Inc. or will provide
 assistance to any competitor of Gaussian, Inc.  The licensee
 of this program is prohibited from giving any competitor of
 Gaussian, Inc. access to this program.  By using this program,
 the user acknowledges that Gaussian, Inc. is engaged in the
 business of creating and licensing software in the field of
 computational chemistry and represents and warrants to the
 licensee that it is not a competitor of Gaussian, Inc. and that
 it will not use this program in any manner prohibited above.
 ---------------------------------------------------------------
  

 Cite this work as:
 Gaussian 09, Revision A.02,
 M. J. Frisch, G. W. Trucks, H. B. Schlegel, G. E. Scuseria, 
 M. A. Robb, J. R. Cheeseman, G. Scalmani, V. Barone, B. Mennucci, 
 G. A. Petersson, H. Nakatsuji, M. Caricato, X. Li, H. P. Hratchian, 
 A. F. Izmaylov, J. Bloino, G. Zheng, J. L. Sonnenberg, M. Hada, 
 M. Ehara, K. Toyota, R. Fukuda, J. Hasegawa, M. Ishida, T. Nakajima, 
 Y. Honda, O. Kitao, H. Nakai, T. Vreven, J. A. Montgomery, Jr., 
 J. E. Peralta, F. Ogliaro, M. Bearpark, J. J. Heyd, E. Brothers, 
 K. N. Kudin, V. N. Staroverov, R. Kobayashi, J. Normand, 
 K. Raghavachari, A. Rendell, J. C. Burant, S. S. Iyengar, J. Tomasi, 
 M. Cossi, N. Rega, J. M. Millam, M. Klene, J. E. Knox, J. B. Cross, 
 V. Bakken, C. Adamo, J. Jaramillo, R. Gomperts, R. E. Stratmann, 
 O. Yazyev, A. J. Austin, R. Cammi, C. Pomelli, J. W. Ochterski, 
 R. L. Martin, K. Morokuma, V. G. Zakrzewski, G. A. Voth, 
 P. Salvador, J. J. Dannenberg, S. Dapprich, A. D. Daniels, 
 O. Farkas, J. B. Foresman, J. V. Ortiz, J. Cioslowski, 
 and D. J. Fox, Gaussian, Inc., Wallingford CT, 2009.
 
 ******************************************
 Gaussian 09:  EM64L-G09RevA.02 11-Jun-2009
                27-May-2021 
 ******************************************
 %chk=c2h6_031.chk
 %mem=100MB
 --------------------------------
 #p b3lyp/6-31+g(d,p) force nosym
 --------------------------------
 1/10=7,30=1,38=1/1,3;
 2/12=2,15=1,17=6,18=5,40=1/2;
 3/5=1,6=6,7=111,11=2,16=1,25=1,30=1,71=1,74=-5/1,2,3;
 4//1;
 5/5=2,38=5/2;
 6/7=2,8=2,9=2,10=2,28=1/1;
 7/29=1,30=1/1,2,3,16;
 1/10=7,30=1/3;
 99//99;
 Leave Link    1 at Thu May 27 13:54:50 2021, MaxMem=   13107200 cpu:       0.0
 (Enter /programs/64bit/g09/g09-gfortran/bin/l101.exe)
 -------------
 c2h6 molecule
 -------------
 Symbolic Z-matrix:
 Charge =  0 Multiplicity = 1
 C1
 C2                   1    d1
 H3                   1    d2       2    a1
 H4                   1    d3       2    a2       3    t1       0
 H5                   1    d4       2    a3       3    t2       0
 H6                   2    d5       1    a4       3    t3       0
 H7                   2    d6       1    a5       6    t4       0
 H8                   2    d7       1    a6       6    t5       0
       Variables:
       Constants:
  d1                    1.53693                  
  a1                  109.22717                  
  t1                  120.00008                  
  d2                    1.08923                  
  a2                  110.16362                  
  t2                 -119.98273                  
  d3                    1.09064                  
  d4                    1.0955                   
  a3                  109.22714                  
  d5                    1.09439                  
  a4                  109.23674                  
  t3                  180.                       
  d6                    1.08988                  
  a5                  109.237                    
  t4                  120.00002                  
  d7                    1.09599                  
  a6                  109.22512                  
  t5                 -120.00002                  
 
 NAtoms=      8 NQM=      8 NQMF=      0 NMic=      0 NMicF=      0 NTot=      8.
                    Isotopes and Nuclear Properties:
 (Nuclear quadrupole moments (NQMom) in fm**2, nuclear magnetic moments (NMagM)
  in nuclear magnetons)

  Atom         1           2           3           4           5           6           7           8
 IAtWgt=          12          12           1           1           1           1           1           1
 AtmWgt=  12.0000000  12.0000000   1.0078250   1.0078250   1.0078250   1.0078250   1.0078250   1.0078250
 NucSpn=           0           0           1           1           1           1           1           1
 AtZEff=   0.0000000   0.0000000   0.0000000   0.0000000   0.0000000   0.0000000   0.0000000   0.0000000
 NQMom=    0.0000000   0.0000000   0.0000000   0.0000000   0.0000000   0.0000000   0.0000000   0.0000000
 NMagM=    0.0000000   0.0000000   2.7928460   2.7928460   2.7928460   2.7928460   2.7928460   2.7928460
 Leave Link  101 at Thu May 27 13:54:50 2021, MaxMem=   13107200 cpu:       0.0
 (Enter /programs/64bit/g09/g09-gfortran/bin/l103.exe)

 GradGradGradGradGradGradGradGradGradGradGradGradGradGradGradGradGradGrad
 Berny optimization.
 Initialization pass.
                       ----------------------------
                       !    Initial Parameters    !
                       ! (Angstroms and Degrees)  !
 ----------------------                            ----------------------
 !      Name          Value   Derivative information (Atomic Units)     !
 ------------------------------------------------------------------------
 !       d1          1.5369   Frozen                                    !
 !       a1        109.2272   Frozen                                    !
 !       t1        120.0001   Frozen                                    !
 !       d2          1.0892   Frozen                                    !
 !       a2        110.1636   Frozen                                    !
 !       t2       -119.9827   Frozen                                    !
 !       d3          1.0906   Frozen                                    !
 !       d4          1.0955   Frozen                                    !
 !       a3        109.2271   Frozen                                    !
 !       d5          1.0944   Frozen                                    !
 !       a4        109.2367   Frozen                                    !
 !       t3        180.0      Frozen                                    !
 !       d6          1.0899   Frozen                                    !
 !       a5        109.237    Frozen                                    !
 !       t4        120.0      Frozen                                    !
 !       d7          1.096    Frozen                                    !
 !       a6        109.2251   Frozen                                    !
 !       t5       -120.0      Frozen                                    !
 ------------------------------------------------------------------------
 Trust Radius=3.00D-01 FncErr=1.00D-07 GrdErr=1.00D-07
 Number of steps in this run=   2 maximum allowed number of steps=   2.
 GradGradGradGradGradGradGradGradGradGradGradGradGradGradGradGradGradGrad

 Leave Link  103 at Thu May 27 13:54:50 2021, MaxMem=   13107200 cpu:       0.0
 (Enter /programs/64bit/g09/g09-gfortran/bin/l202.exe)
                          Input orientation:                          
 ---------------------------------------------------------------------
 Center     Atomic      Atomic             Coordinates (Angstroms)
 Number     Number       Type             X           Y           Z
 ---------------------------------------------------------------------
      1          6           0        0.000000    0.000000    0.000000
      2          6           0        0.000000    0.000000    1.536930
      3          1           0        1.028470    0.000000   -0.358698
      4          1           0       -0.511901   -0.886636   -0.375947
      5          1           0       -0.516926    0.895966   -0.360763
      6          1           0       -1.033283    0.000000    1.897500
      7          1           0        0.514515   -0.891165    1.896021
      8          1           0        0.517434    0.896222    1.897818
 ---------------------------------------------------------------------
                    Distance matrix (angstroms):
                    1          2          3          4          5
     1  C    0.000000
     2  C    1.536930   0.000000
     3  H    1.089227   2.156654   0.000000
     4  H    1.090643   2.169623   1.777404   0.000000
     5  H    1.095499   2.161298   1.786340   1.782674   0.000000
     6  H    2.160597   1.094387   3.056347   2.495300   2.483774
     7  H    2.157266   1.089884   2.478323   2.493068   3.057905
     8  H    2.161635   1.095989   2.481177   3.067266   2.484168
                    6          7          8
     6  H    0.000000
     7  H    1.786016   0.000000
     8  H    1.791072   1.787390   0.000000
 Symmetry turned off by external request.
 Stoichiometry    C2H6
 Framework group  C1[X(C2H6)]
 Deg. of freedom    18
 Full point group                 C1      NOp   1
 Rotational constants (GHZ):     78.6794495     20.1206878     20.1140895
 Leave Link  202 at Thu May 27 13:54:50 2021, MaxMem=   13107200 cpu:       0.0
 (Enter /programs/64bit/g09/g09-gfortran/bin/l301.exe)
 Standard basis: 6-31+G(d,p) (6D, 7F)
 Ernie: Thresh=  0.10000D-02 Tol=  0.10000D-05 Strict=F.
 Integral buffers will be    131072 words long.
 Raffenetti 2 integral format.
 Two-electron integral symmetry is turned off.
    68 basis functions,   106 primitive gaussians,    68 cartesian basis functions
     9 alpha electrons        9 beta electrons
       nuclear repulsion energy        42.2203124906 Hartrees.
 IExCor=  402 DFT=T Ex+Corr=B3LYP ExCW=0 ScaHFX=  0.200000
 ScaDFX=  0.800000  0.720000  1.000000  0.810000 ScalE2=  1.000000  1.000000
 IRadAn=      0 IRanWt=     -1 IRanGd=            0 ICorTp=0
 NAtoms=    8 NActive=    8 NUniq=    8 SFac= 7.50D-01 NAtFMM=   80 NAOKFM=F Big=F
 Leave Link  301 at Thu May 27 13:54:50 2021, MaxMem=   13107200 cpu:       0.0
 (Enter /programs/64bit/g09/g09-gfortran/bin/l302.exe)
 NPDir=0 NMtPBC=     1 NCelOv=     1 NCel=       1 NClECP=     1 NCelD=      1
         NCelK=      1 NCelE2=     1 NClLst=     1 CellRange=     0.0.
 One-electron integrals computed using PRISM.
 NBasis=    68 RedAO= T  NBF=    68
 NBsUse=    68 1.00D-06 NBFU=    68
 Precomputing XC quadrature grid using
 IXCGrd= 2 IRadAn=           0 IRanWt=          -1 IRanGd=           0 AccXCQ= 1.00D-10.
 NRdTot=     510 NPtTot=       65100 NUsed=       68787 NTot=       68819
 NSgBfM=    68    68    68    68    68 NAtAll=     8     8.
 Leave Link  302 at Thu May 27 13:54:50 2021, MaxMem=   13107200 cpu:       0.1
 (Enter /programs/64bit/g09/g09-gfortran/bin/l303.exe)
 DipDrv:  MaxL=1.
 Leave Link  303 at Thu May 27 13:54:50 2021, MaxMem=   13107200 cpu:       0.0
 (Enter /programs/64bit/g09/g09-gfortran/bin/l401.exe)
 Harris functional with IExCor=  402 diagonalized for initial guess.
 ExpMin= 4.38D-02 ExpMax= 3.05D+03 ExpMxC= 4.57D+02 IAcc=2 IRadAn=         0 AccDes= 0.00D+00
 HarFok:  IExCor=  402 AccDes= 0.00D+00 IRadAn=         0 IDoV= 1
 ScaDFX=  1.000000  1.000000  1.000000  1.000000
 FoFCou: FMM=F IPFlag=           0 FMFlag=      100000 FMFlg1=           0
         NFxFlg=           0 DoJE=T BraDBF=F KetDBF=T FulRan=T
         Omega=  0.000000  0.000000  1.000000  0.000000  0.000000 ICntrl=     500 IOpCl=  0
         NMat0=    1 NMatS0=    1 NMatT0=    0 NMatD0=    1 NMtDS0=    0 NMtDT0=    0
         I1Cent=           4 NGrid=           0.
 Symmetry not used in FoFCou.
 Harris En= -79.8989063532062    
 Leave Link  401 at Thu May 27 13:54:50 2021, MaxMem=   13107200 cpu:       0.6
 (Enter /programs/64bit/g09/g09-gfortran/bin/l502.exe)
 Closed shell SCF:
 Requested convergence on RMS density matrix=1.00D-08 within 128 cycles.
 Requested convergence on MAX density matrix=1.00D-06.
 Requested convergence on             energy=1.00D-06.
 No special actions if energy rises.
 Using DIIS extrapolation, IDIIS=  1040.
 Two-electron integral symmetry not used.
        68702 words used for storage of precomputed grid.
 Keep R1 ints in memory in canonical form, NReq=3743087.
 IEnd=      101552 IEndB=      101552 NGot=    13107200 MDV=    10273922
 LenX=    10273922 LenY=    10268857
 Symmetry not used in FoFDir.
 MinBra= 0 MaxBra= 2 Meth= 1.
 IRaf=       0 NMat=   1 IRICut=       1 DoRegI=T DoRafI=F ISym2E= 0 JSym2E=0.

 Cycle   1  Pass 1  IDiag  1:
 E= -79.7079749722771    
 DIIS: error= 4.00D-02 at cycle   1 NSaved=   1.
 NSaved= 1 IEnMin= 1 EnMin= -79.7079749722771     IErMin= 1 ErrMin= 4.00D-02
 ErrMax= 4.00D-02 EMaxC= 1.00D-01 BMatC= 1.17D-01 BMatP= 1.17D-01
 IDIUse=3 WtCom= 6.00D-01 WtEn= 4.00D-01
 Coeff-Com:  0.100D+01
 Coeff-En:   0.100D+01
 Coeff:      0.100D+01
 Gap=     0.282 Goal=   None    Shift=    0.000
 GapD=    0.282 DampG=1.000 DampE=0.500 DampFc=0.5000 IDamp=-1.
 Damping current iteration by 5.00D-01
 RMSDP=9.66D-03 MaxDP=1.41D-01              OVMax= 2.03D-01

 Cycle   2  Pass 1  IDiag  1:
 E= -79.7630691502645     Delta-E=       -0.055094177987 Rises=F Damp=T
 DIIS: error= 1.16D-02 at cycle   2 NSaved=   2.
 NSaved= 2 IEnMin= 2 EnMin= -79.7630691502645     IErMin= 2 ErrMin= 1.16D-02
 ErrMax= 1.16D-02 EMaxC= 1.00D-01 BMatC= 4.55D-03 BMatP= 1.17D-01
 IDIUse=3 WtCom= 8.84D-01 WtEn= 1.16D-01
 Coeff-Com:  0.108D+00 0.892D+00
 Coeff-En:   0.186D+00 0.814D+00
 Coeff:      0.117D+00 0.883D+00
 Gap=     0.374 Goal=   None    Shift=    0.000
 RMSDP=1.29D-03 MaxDP=9.98D-03 DE=-5.51D-02 OVMax= 1.26D-01

 Cycle   3  Pass 1  IDiag  1:
 E= -79.8404467178160     Delta-E=       -0.077377567552 Rises=F Damp=F
 DIIS: error= 2.27D-03 at cycle   3 NSaved=   3.
 NSaved= 3 IEnMin= 3 EnMin= -79.8404467178160     IErMin= 3 ErrMin= 2.27D-03
 ErrMax= 2.27D-03 EMaxC= 1.00D-01 BMatC= 1.53D-04 BMatP= 4.55D-03
 IDIUse=3 WtCom= 9.77D-01 WtEn= 2.27D-02
 Coeff-Com:  0.725D-02 0.105D+00 0.887D+00
 Coeff-En:   0.000D+00 0.000D+00 0.100D+01
 Coeff:      0.709D-02 0.103D+00 0.890D+00
 Gap=     0.364 Goal=   None    Shift=    0.000
 RMSDP=1.98D-04 MaxDP=2.15D-03 DE=-7.74D-02 OVMax= 4.57D-03

 Cycle   4  Pass 1  IDiag  1:
 E= -79.8405778974635     Delta-E=       -0.000131179647 Rises=F Damp=F
 DIIS: error= 6.96D-04 at cycle   4 NSaved=   4.
 NSaved= 4 IEnMin= 4 EnMin= -79.8405778974635     IErMin= 4 ErrMin= 6.96D-04
 ErrMax= 6.96D-04 EMaxC= 1.00D-01 BMatC= 1.05D-05 BMatP= 1.53D-04
 IDIUse=3 WtCom= 9.93D-01 WtEn= 6.96D-03
 Coeff-Com: -0.532D-03-0.536D-02 0.197D+00 0.809D+00
 Coeff-En:   0.000D+00 0.000D+00 0.000D+00 0.100D+01
 Coeff:     -0.528D-03-0.532D-02 0.196D+00 0.810D+00
 Gap=     0.364 Goal=   None    Shift=    0.000
 RMSDP=4.39D-05 MaxDP=4.52D-04 DE=-1.31D-04 OVMax= 1.22D-03

 Cycle   5  Pass 1  IDiag  1:
 E= -79.8405878034890     Delta-E=       -0.000009906026 Rises=F Damp=F
 DIIS: error= 2.52D-05 at cycle   5 NSaved=   5.
 NSaved= 5 IEnMin= 5 EnMin= -79.8405878034890     IErMin= 5 ErrMin= 2.52D-05
 ErrMax= 2.52D-05 EMaxC= 1.00D-01 BMatC= 2.93D-08 BMatP= 1.05D-05
 IDIUse=1 WtCom= 1.00D+00 WtEn= 0.00D+00
 Coeff-Com:  0.353D-03-0.629D-03-0.921D-03 0.112D-01 0.990D+00
 Coeff:      0.353D-03-0.629D-03-0.921D-03 0.112D-01 0.990D+00
 Gap=     0.364 Goal=   None    Shift=    0.000
 RMSDP=2.94D-06 MaxDP=7.03D-05 DE=-9.91D-06 OVMax= 9.75D-05

 Cycle   6  Pass 1  IDiag  1:
 E= -79.8405878277576     Delta-E=       -0.000000024269 Rises=F Damp=F
 DIIS: error= 1.82D-05 at cycle   6 NSaved=   6.
 NSaved= 6 IEnMin= 6 EnMin= -79.8405878277576     IErMin= 6 ErrMin= 1.82D-05
 ErrMax= 1.82D-05 EMaxC= 1.00D-01 BMatC= 9.36D-09 BMatP= 2.93D-08
 IDIUse=1 WtCom= 1.00D+00 WtEn= 0.00D+00
 Coeff-Com:  0.200D-03-0.218D-03-0.510D-02-0.129D-01 0.522D+00 0.496D+00
 Coeff:      0.200D-03-0.218D-03-0.510D-02-0.129D-01 0.522D+00 0.496D+00
 Gap=     0.364 Goal=   None    Shift=    0.000
 RMSDP=1.13D-06 MaxDP=2.41D-05 DE=-2.43D-08 OVMax= 3.32D-05

 Cycle   7  Pass 1  IDiag  1:
 E= -79.8405878368220     Delta-E=       -0.000000009064 Rises=F Damp=F
 DIIS: error= 1.09D-06 at cycle   7 NSaved=   7.
 NSaved= 7 IEnMin= 7 EnMin= -79.8405878368220     IErMin= 7 ErrMin= 1.09D-06
 ErrMax= 1.09D-06 EMaxC= 1.00D-01 BMatC= 4.19D-11 BMatP= 9.36D-09
 IDIUse=1 WtCom= 1.00D+00 WtEn= 0.00D+00
 Coeff-Com: -0.693D-05 0.281D-05-0.290D-03-0.106D-02-0.346D-02 0.544D-01
 Coeff-Com:  0.950D+00
 Coeff:     -0.693D-05 0.281D-05-0.290D-03-0.106D-02-0.346D-02 0.544D-01
 Coeff:      0.950D+00
 Gap=     0.364 Goal=   None    Shift=    0.000
 RMSDP=1.05D-07 MaxDP=1.60D-06 DE=-9.06D-09 OVMax= 2.25D-06

 Cycle   8  Pass 1  IDiag  1:
 E= -79.8405878368672     Delta-E=       -0.000000000045 Rises=F Damp=F
 DIIS: error= 1.45D-07 at cycle   8 NSaved=   8.
 NSaved= 8 IEnMin= 8 EnMin= -79.8405878368672     IErMin= 8 ErrMin= 1.45D-07
 ErrMax= 1.45D-07 EMaxC= 1.00D-01 BMatC= 8.06D-13 BMatP= 4.19D-11
 IDIUse=1 WtCom= 1.00D+00 WtEn= 0.00D+00
 Coeff-Com: -0.348D-05 0.227D-05-0.594D-04-0.273D-03-0.449D-02 0.144D-01
 Coeff-Com:  0.305D+00 0.685D+00
 Coeff:     -0.348D-05 0.227D-05-0.594D-04-0.273D-03-0.449D-02 0.144D-01
 Coeff:      0.305D+00 0.685D+00
 Gap=     0.364 Goal=   None    Shift=    0.000
 RMSDP=1.90D-08 MaxDP=1.87D-07 DE=-4.51D-11 OVMax= 3.23D-07

 Cycle   9  Pass 1  IDiag  1:
 E= -79.8405878368677     Delta-E=       -0.000000000001 Rises=F Damp=F
 DIIS: error= 1.17D-08 at cycle   9 NSaved=   9.
 NSaved= 9 IEnMin= 9 EnMin= -79.8405878368677     IErMin= 9 ErrMin= 1.17D-08
 ErrMax= 1.17D-08 EMaxC= 1.00D-01 BMatC= 7.56D-15 BMatP= 8.06D-13
 IDIUse=1 WtCom= 1.00D+00 WtEn= 0.00D+00
 Coeff-Com: -0.108D-07 0.168D-06 0.757D-05 0.112D-04-0.388D-03-0.106D-02
 Coeff-Com: -0.124D-01 0.534D-01 0.960D+00
 Coeff:     -0.108D-07 0.168D-06 0.757D-05 0.112D-04-0.388D-03-0.106D-02
 Coeff:     -0.124D-01 0.534D-01 0.960D+00
 Gap=     0.364 Goal=   None    Shift=    0.000
 RMSDP=1.81D-09 MaxDP=1.70D-08 DE=-5.54D-13 OVMax= 4.47D-08

 SCF Done:  E(RB3LYP) =  -79.8405878369     A.U. after    9 cycles
             Convg  =    0.1810D-08             -V/T =  2.0106
 KE= 7.899941291259D+01 PE=-2.682031472883D+02 EE= 6.714283404832D+01
 Leave Link  502 at Thu May 27 13:54:55 2021, MaxMem=   13107200 cpu:       4.8
 (Enter /programs/64bit/g09/g09-gfortran/bin/l601.exe)
 Copying SCF densities to generalized density rwf, IOpCl= 0 IROHF=0.

 **********************************************************************

            Population analysis using the SCF density.

 **********************************************************************

 Alpha  occ. eigenvalues --  -10.17656 -10.17584  -0.75449  -0.61326  -0.43960
 Alpha  occ. eigenvalues --   -0.43882  -0.35851  -0.34702  -0.34659
 Alpha virt. eigenvalues --    0.01752   0.03190   0.05272   0.05284   0.07959
 Alpha virt. eigenvalues --    0.08976   0.08982   0.14266   0.19056   0.19108
 Alpha virt. eigenvalues --    0.20455   0.20597   0.24938   0.29489   0.32933
 Alpha virt. eigenvalues --    0.61831   0.64368   0.64405   0.66444   0.66548
 Alpha virt. eigenvalues --    0.69595   0.91966   0.92045   0.97185   0.97261
 Alpha virt. eigenvalues --    0.99877   1.09871   1.11373   1.32007   1.32227
 Alpha virt. eigenvalues --    1.46476   1.68923   1.69156   1.90312   2.04276
 Alpha virt. eigenvalues --    2.04486   2.08742   2.09028   2.09588   2.09966
 Alpha virt. eigenvalues --    2.29125   2.29466   2.37972   2.49350   2.49707
 Alpha virt. eigenvalues --    2.66732   2.73017   2.80806   2.80959   2.91817
 Alpha virt. eigenvalues --    2.92341   3.22594   3.28367   3.36886   3.36949
 Alpha virt. eigenvalues --    3.52563   3.52760   4.33470   4.58424
          Condensed to atoms (all electrons):
              1          2          3          4          5          6
     1  C    5.099873   0.259264   0.405829   0.405183   0.405871  -0.047045
     2  C    0.259264   5.095741  -0.046743  -0.045142  -0.046979   0.405940
     3  H    0.405829  -0.046743   0.556701  -0.028737  -0.027944   0.004905
     4  H    0.405183  -0.045142  -0.028737   0.556270  -0.028506  -0.004482
     5  H    0.405871  -0.046979  -0.027944  -0.028506   0.557563  -0.004575
     6  H   -0.047045   0.405940   0.004905  -0.004482  -0.004575   0.556711
     7  H   -0.046765   0.405811  -0.004587  -0.004482   0.004894  -0.028116
     8  H   -0.047735   0.406910  -0.004622   0.004799  -0.004616  -0.028046
              7          8
     1  C   -0.046765  -0.047735
     2  C    0.405811   0.406910
     3  H   -0.004587  -0.004622
     4  H   -0.004482   0.004799
     5  H    0.004894  -0.004616
     6  H   -0.028116  -0.028046
     7  H    0.556134  -0.028212
     8  H   -0.028212   0.556863
 Mulliken atomic charges:
              1
     1  C   -0.434475
     2  C   -0.434800
     3  H    0.145198
     4  H    0.145097
     5  H    0.144291
     6  H    0.144707
     7  H    0.145323
     8  H    0.144659
 Sum of Mulliken atomic charges =  -0.00000
 Mulliken charges with hydrogens summed into heavy atoms:
              1
     1  C    0.000111
     2  C   -0.000111
 Sum of Mulliken charges with hydrogens summed into heavy atoms =  -0.00000
 Electronic spatial extent (au):  <R**2>=            147.6002
 Charge=             -0.0000 electrons
 Dipole moment (field-independent basis, Debye):
    X=              0.0040    Y=             -0.0067    Z=             -0.0044  Tot=              0.0089
 Quadrupole moment (field-independent basis, Debye-Ang):
   XX=            -14.9403   YY=            -14.9469   ZZ=            -16.1691
   XY=             -0.0064   XZ=              0.0133   YZ=              0.0152
 Traceless Quadrupole moment (field-independent basis, Debye-Ang):
   XX=              0.4118   YY=              0.4052   ZZ=             -0.8170
   XY=             -0.0064   XZ=              0.0133   YZ=              0.0152
 Octapole moment (field-independent basis, Debye-Ang**2):
  XXX=              0.0107  YYY=             -0.0570  ZZZ=            -37.2944  XYY=              0.0184
  XXY=             -0.0192  XXZ=            -11.4669  XZZ=              0.0111  YZZ=             -0.0348
  YYZ=            -11.4713  XYZ=              0.0005
 Hexadecapole moment (field-independent basis, Debye-Ang**3):
 XXXX=            -31.2224 YYYY=            -31.2524 ZZZZ=           -156.0194 XXXY=             -0.0003
 XXXZ=             -1.2947 YYYX=             -0.0038 YYYZ=             -0.0443 ZZZX=              0.0231
 ZZZY=             -0.0509 XXYY=            -10.4128 XXZZ=            -29.3829 YYZZ=            -29.3734
 XXYZ=             -0.0147 YYXZ=              1.3012 ZZXY=              0.0177
 N-N= 4.222031249056D+01 E-N=-2.682031475454D+02  KE= 7.899941291259D+01
 No NMR shielding tensors so no spin-rotation constants.
 Leave Link  601 at Thu May 27 13:54:55 2021, MaxMem=   13107200 cpu:       0.0
 (Enter /programs/64bit/g09/g09-gfortran/bin/l701.exe)
 Compute integral first derivatives.
 ... and contract with generalized density number  0.
 Leave Link  701 at Thu May 27 13:54:56 2021, MaxMem=   13107200 cpu:       0.0
 (Enter /programs/64bit/g09/g09-gfortran/bin/l702.exe)
 L702 exits ... SP integral derivatives will be done elsewhere.
 Leave Link  702 at Thu May 27 13:54:56 2021, MaxMem=   13107200 cpu:       0.0
 (Enter /programs/64bit/g09/g09-gfortran/bin/l703.exe)
 Compute integral first derivatives, UseDBF=F ICtDFT=           0.
 Integral derivatives from FoFDir, PRISM(SPDF).
 Calling FoFJK, ICntrl=      2127 FMM=F ISym2X=0 I1Cent= 0 IOpClX= 0 NMat=1 NMatS=1 NMatT=0.
 FoFCou: FMM=F IPFlag=           0 FMFlag=      100000 FMFlg1=         800
         NFxFlg=           0 DoJE=F BraDBF=F KetDBF=F FulRan=T
         Omega=  0.000000  0.000000  1.000000  0.000000  0.000000 ICntrl=    2127 IOpCl=  0
         NMat0=    1 NMatS0=    1 NMatT0=    0 NMatD0=    1 NMtDS0=    0 NMtDT0=    0
         I1Cent=           0 NGrid=           0.
 Symmetry not used in FoFCou.
 Leave Link  703 at Thu May 27 13:54:57 2021, MaxMem=   13107200 cpu:       1.1
 (Enter /programs/64bit/g09/g09-gfortran/bin/l716.exe)
 Dipole        = 1.55712641D-03-2.63904950D-03-1.73012478D-03
 -------------------------------------------------------------------
 Center     Atomic                   Forces (Hartrees/Bohr)
 Number     Number              X              Y              Z
 -------------------------------------------------------------------
      1        6          -0.001836064    0.003063804    0.009581438
      2        6          -0.001457974    0.002148676   -0.010355194
      3        1           0.001783839    0.000509194   -0.005758864
      4        1          -0.000734409   -0.001065489   -0.004022005
      5        1           0.001365914   -0.001561749   -0.004414036
      6        1           0.001604819    0.000081262    0.004874451
      7        1           0.000600245   -0.000989294    0.005843511
      8        1          -0.001326371   -0.002186403    0.004250699
 -------------------------------------------------------------------
 Cartesian Forces:  Max     0.010355194 RMS     0.003995915
 -----------------------------------------------------------------------------------------------
                       Internal Coordinate Forces (Hartree/Bohr or radian)
  Cent   Atom   N1       Length/X         N2         Alpha/Y        N3         Beta/Z          J
 -----------------------------------------------------------------------------------------------
      1  C 
      2  C        1   0.004613(     1)
      3  H        1   0.003581(     2)      2   0.009983(     8)
      4  H        1   0.002597(     3)      2   0.006865(     9)      3   0.000200(    14)     0
      5  H        1  -0.000468(     4)      2   0.010016(    10)      3   0.000787(    15)     0
      6  H        2   0.000091(     5)      1   0.010611(    11)      3  -0.000001(    16)     0
      7  H        2   0.003018(     6)      1   0.010578(    12)      6   0.000049(    17)     0
      8  H        2  -0.001014(     7)      1   0.010056(    13)      6   0.000108(    18)     0
 -----------------------------------------------------------------------------------------------
 Internal  Forces:  Max     0.010611446 RMS     0.005890806
 Force constants in Cartesian coordinates: 
                1             2             3             4             5 
      1  0.661132D+00
      2  0.951131D-03  0.656784D+00
      3  0.605516D-03  0.455781D-02  0.607783D+00
      4 -0.867905D-01 -0.145788D-03 -0.162470D-03  0.657973D+00
      5 -0.145869D-03 -0.869538D-01 -0.226081D-04 -0.232364D-02  0.659277D+00
      6  0.345537D-04 -0.120964D-03 -0.287926D+00  0.448680D-03 -0.173926D-02
      7 -0.315853D+00 -0.843977D-04  0.847060D-01  0.884341D-02 -0.162630D-05
      8 -0.118202D-03 -0.790877D-01 -0.227076D-03 -0.218164D-05  0.838186D-03
      9  0.950995D-01 -0.241987D-03 -0.106149D+00  0.253561D-01 -0.466298D-05
     10 -0.137042D+00 -0.100504D+00 -0.437018D-01  0.297187D-02  0.362569D-02
     11 -0.100675D+00 -0.253370D+00 -0.758644D-01  0.362282D-02  0.715323D-02
     12 -0.489770D-01 -0.848754D-01 -0.108960D+00 -0.125907D-01 -0.218071D-01
     13 -0.135894D+00  0.998045D-01 -0.414473D-01  0.282130D-02 -0.345024D-02
     14  0.100010D+00 -0.251829D+00  0.715562D-01 -0.344686D-02  0.680105D-02
     15 -0.467280D-01  0.805596D-01 -0.104748D+00 -0.126029D-01  0.218343D-01
     16  0.880514D-02  0.000000D+00  0.000000D+00 -0.310590D+00  0.110566D-04
     17 -0.142706D-04  0.826696D-03  0.000000D+00 -0.141675D-03 -0.792576D-01
     18  0.252328D-01  0.000000D+00  0.000000D+00  0.931767D-01  0.316617D-04
     19  0.284220D-02 -0.347428D-02  0.000000D+00 -0.138644D+00  0.101935D+00
     20 -0.346383D-02  0.683586D-02  0.000000D+00  0.101968D+00 -0.256397D+00
     21 -0.126687D-01  0.219428D-01  0.000000D+00 -0.472873D-01  0.819248D-01
     22  0.280041D-02  0.345255D-02  0.000000D+00 -0.136585D+00 -0.996507D-01
     23  0.345639D-02  0.679378D-02  0.000000D+00 -0.995309D-01 -0.251461D+00
     24 -0.125987D-01 -0.218217D-01  0.000000D+00 -0.463381D-01 -0.802172D-01
                6             7             8             9            10 
      6  0.601823D+00
      7  0.000000D+00  0.317372D+00
      8  0.000000D+00  0.905157D-04  0.591770D-01
      9  0.000000D+00 -0.907438D-01  0.259529D-03  0.888376D-01
     10  0.000000D+00 -0.526707D-02 -0.273480D-01 -0.151019D-01  0.122631D+00
     11  0.000000D+00  0.173980D-02  0.937764D-02  0.498839D-02  0.109834D+00
     12  0.000000D+00  0.306866D-02  0.151216D-01  0.879855D-02  0.469999D-01
     13  0.000000D+00 -0.509547D-02  0.273815D-01 -0.146099D-01  0.167095D-01
     14  0.000000D+00 -0.174429D-02  0.969587D-02 -0.500127D-02  0.143933D-01
     15  0.000000D+00  0.296915D-02 -0.151541D-01  0.851323D-02  0.118037D-01
     16  0.832883D-01  0.000000D+00  0.000000D+00  0.000000D+00  0.000000D+00
     17  0.877684D-04  0.000000D+00  0.731059D-03  0.000000D+00  0.636003D-03
     18 -0.104426D+00  0.000000D+00  0.000000D+00  0.000000D+00  0.000000D+00
     19 -0.423468D-01  0.000000D+00 -0.635733D-03  0.000000D+00 -0.553072D-03
     20  0.733959D-01  0.000000D+00 -0.367041D-03  0.000000D+00 -0.319317D-03
     21 -0.105437D+00  0.000000D+00  0.000000D+00  0.000000D+00  0.000000D+00
     22 -0.414248D-01  0.000000D+00  0.632145D-03  0.000000D+00  0.549951D-03
     23 -0.716234D-01  0.000000D+00 -0.364970D-03  0.000000D+00 -0.317515D-03
     24 -0.104034D+00  0.000000D+00  0.000000D+00  0.000000D+00  0.000000D+00
               11            12            13            14            15 
     11  0.249456D+00
     12  0.814022D-01  0.914088D-01
     13 -0.145230D-01  0.114991D-01  0.121456D+00
     14 -0.126174D-01  0.101587D-01 -0.109214D+00  0.247949D+00
     15 -0.105262D-01  0.875270D-02  0.445581D-01 -0.767136D-01  0.874816D-01
     16  0.000000D+00  0.000000D+00  0.000000D+00  0.000000D+00  0.000000D+00
     17 -0.367198D-03  0.000000D+00 -0.629600D-03 -0.363247D-03  0.000000D+00
     18  0.000000D+00  0.000000D+00  0.000000D+00  0.000000D+00  0.000000D+00
     19  0.319317D-03  0.000000D+00  0.547504D-03  0.315881D-03  0.000000D+00
     20  0.184358D-03  0.000000D+00  0.316102D-03  0.182374D-03  0.000000D+00
     21  0.000000D+00  0.000000D+00  0.000000D+00  0.000000D+00  0.000000D+00
     22 -0.317515D-03  0.000000D+00 -0.544414D-03 -0.314099D-03  0.000000D+00
     23  0.183318D-03  0.000000D+00  0.314318D-03  0.181345D-03  0.000000D+00
     24  0.000000D+00  0.000000D+00  0.000000D+00  0.000000D+00  0.000000D+00
               16            17            18            19            20 
     16  0.311962D+00
     17 -0.135981D-05  0.590808D-01
     18 -0.892458D-01 -0.387198D-05  0.873542D-01
     19 -0.510367D-02  0.273824D-01 -0.146256D-01  0.123831D+00
     20 -0.174279D-02  0.969935D-02 -0.499429D-02 -0.111301D+00  0.252347D+00
     21  0.298756D-02 -0.151631D-01  0.856142D-02  0.453500D-01 -0.785553D-01
     22 -0.507319D-02 -0.272315D-01 -0.145382D-01  0.170805D-01  0.145431D-01
     23  0.173311D-02  0.965009D-02  0.496656D-02 -0.145415D-01 -0.124851D-01
     24  0.296987D-02  0.150792D-01  0.851073D-02  0.116223D-01  0.101537D-01
               21            22            23            24 
     21  0.883298D-01
     22  0.116185D-01  0.121771D+00
     23 -0.101492D-01  0.108886D+00  0.247502D+00
     24  0.854588D-02  0.443445D-01  0.768060D-01  0.869770D-01
 Force constants in internal coordinates: 
                1             2             3             4             5 
      1  0.287926D+00
      2  0.000000D+00  0.349021D+00
      3  0.000000D+00  0.000000D+00  0.347385D+00
      4  0.000000D+00  0.000000D+00  0.000000D+00  0.341848D+00
      5  0.000000D+00  0.000000D+00  0.000000D+00  0.000000D+00  0.343105D+00
      6  0.000000D+00  0.000000D+00  0.000000D+00  0.000000D+00  0.000000D+00
      7  0.000000D+00  0.000000D+00  0.000000D+00  0.000000D+00  0.000000D+00
      8  0.000000D+00  0.000000D+00  0.000000D+00  0.000000D+00  0.000000D+00
      9  0.000000D+00  0.000000D+00  0.000000D+00  0.000000D+00  0.000000D+00
     10  0.000000D+00  0.000000D+00  0.000000D+00  0.000000D+00  0.000000D+00
     11  0.000000D+00  0.000000D+00  0.000000D+00  0.000000D+00  0.000000D+00
     12  0.000000D+00  0.000000D+00  0.000000D+00  0.000000D+00  0.000000D+00
     13  0.000000D+00  0.000000D+00  0.000000D+00  0.000000D+00  0.000000D+00
     14  0.000000D+00  0.000000D+00  0.000000D+00  0.000000D+00  0.000000D+00
     15  0.000000D+00  0.000000D+00  0.000000D+00  0.000000D+00  0.000000D+00
     16  0.000000D+00  0.000000D+00  0.000000D+00  0.000000D+00  0.000000D+00
     17  0.000000D+00  0.000000D+00  0.000000D+00  0.000000D+00  0.000000D+00
     18  0.000000D+00  0.000000D+00  0.000000D+00  0.000000D+00  0.000000D+00
                6             7             8             9            10 
      6  0.348261D+00
      7  0.000000D+00  0.341296D+00
      8  0.000000D+00  0.000000D+00  0.242296D+00
      9  0.000000D+00  0.000000D+00  0.421118D-01  0.241668D+00
     10  0.000000D+00  0.000000D+00  0.406889D-01  0.421336D-01  0.242316D+00
     11  0.000000D+00  0.000000D+00  0.000000D+00  0.000000D+00  0.000000D+00
     12  0.000000D+00  0.000000D+00  0.000000D+00  0.000000D+00  0.000000D+00
     13  0.000000D+00  0.000000D+00  0.000000D+00  0.000000D+00  0.000000D+00
     14  0.000000D+00  0.000000D+00 -0.656788D-01  0.822445D-05  0.656863D-01
     15  0.000000D+00  0.000000D+00  0.645739D-01 -0.645344D-01 -0.110727D-02
     16  0.000000D+00  0.000000D+00  0.000000D+00  0.000000D+00  0.000000D+00
     17  0.000000D+00  0.000000D+00  0.000000D+00  0.000000D+00  0.000000D+00
     18  0.000000D+00  0.000000D+00  0.000000D+00  0.000000D+00  0.000000D+00
               11            12            13            14            15 
     11  0.240416D+00
     12  0.409072D-01  0.240417D+00
     13  0.408898D-01  0.408898D-01  0.240424D+00
     14  0.000000D+00  0.000000D+00  0.000000D+00  0.221658D+00
     15  0.000000D+00  0.000000D+00  0.000000D+00 -0.106669D+00  0.223514D+00
     16  0.000000D+00  0.000000D+00  0.000000D+00  0.832304D-02  0.832304D-02
     17 -0.645863D-01 -0.145495D-04  0.645861D-01  0.277435D-02  0.277435D-02
     18  0.645694D-01 -0.645714D-01 -0.202219D-05  0.277435D-02  0.277435D-02
               16            17            18 
     16  0.249691D-01
     17  0.832198D-02  0.225258D+00
     18  0.832396D-02 -0.108479D+00  0.225282D+00
 Leave Link  716 at Thu May 27 13:54:57 2021, MaxMem=   13107200 cpu:       0.0
 (Enter /programs/64bit/g09/g09-gfortran/bin/l103.exe)

 GradGradGradGradGradGradGradGradGradGradGradGradGradGradGradGradGradGrad
 Berny optimization.
 Search for a local minimum.
 Step number   1 out of a maximum of    2
 All quantities printed in internal units (Hartrees-Bohrs-Radians)
 Second derivative matrix not updated -- first step.
 The second derivative matrix:
                          d1        a1        t1        d2        a2
           d1           0.28793
           a1           0.00000   0.24230
           t1           0.00000  -0.06568   0.22166
           d2           0.00000   0.00000   0.00000   0.34902
           a2           0.00000   0.04211   0.00001  -0.00000   0.24167
           t2           0.00000   0.06457  -0.10667  -0.00000  -0.06453
           d3          -0.00000   0.00000   0.00000   0.00000  -0.00000
           d4           0.00000  -0.00000  -0.00000   0.00000  -0.00000
           a3          -0.00000   0.04069   0.06569   0.00000   0.04213
           d5           0.00000   0.00000  -0.00000   0.00000   0.00000
           a4           0.00000   0.00000  -0.00000   0.00000  -0.00000
           t3           0.00000   0.00000   0.00832   0.00000  -0.00000
           d6           0.00000   0.00000  -0.00000   0.00000  -0.00000
           a5           0.00000   0.00000   0.00000   0.00000   0.00000
           t4           0.00000   0.00000   0.00277   0.00000  -0.00000
           d7           0.00000   0.00000  -0.00000   0.00000  -0.00000
           a6          -0.00000   0.00000   0.00000   0.00000   0.00000
           t5           0.00000   0.00000   0.00277   0.00000  -0.00000
                          t2        d3        d4        a3        d5
           t2           0.22351
           d3          -0.00000   0.34738
           d4           0.00000  -0.00000   0.34185
           a3          -0.00111   0.00000  -0.00000   0.24232
           d5          -0.00000  -0.00000  -0.00000   0.00000   0.34310
           a4          -0.00000   0.00000   0.00000  -0.00000   0.00000
           t3           0.00832   0.00000   0.00000  -0.00000   0.00000
           d6          -0.00000   0.00000  -0.00000   0.00000   0.00000
           a5           0.00000  -0.00000   0.00000  -0.00000  -0.00000
           t4           0.00277   0.00000   0.00000  -0.00000   0.00000
           d7          -0.00000   0.00000   0.00000  -0.00000  -0.00000
           a6           0.00000  -0.00000  -0.00000  -0.00000   0.00000
           t5           0.00277   0.00000   0.00000  -0.00000  -0.00000
                          a4        t3        d6        a5        t4
           a4           0.24042
           t3          -0.00000   0.02497
           d6           0.00000  -0.00000   0.34826
           a5           0.04091   0.00000  -0.00000   0.24042
           t4          -0.06459   0.00832  -0.00000  -0.00001   0.22526
           d7           0.00000  -0.00000  -0.00000  -0.00000  -0.00000
           a6           0.04089   0.00000   0.00000   0.04089   0.06459
           t5           0.06457   0.00832  -0.00000  -0.06457  -0.10848
                          d7        a6        t5
           d7           0.34130
           a6          -0.00000   0.24042
           t5          -0.00000  -0.00000   0.22528
     Eigenvalues --- 1000.000001000.000001000.000001000.000001000.00000
     Eigenvalues --- 1000.000001000.000001000.000001000.000001000.00000
     Eigenvalues --- 1000.000001000.000001000.000001000.000001000.00000
     Eigenvalues --- 1000.000001000.000001000.00000
 Angle between quadratic step and forces=  90.00 degrees.
 Linear search not attempted -- first point.
 Variable       Old X    -DE/DX   Delta X   Delta X   Delta X     New X
                                 (Linear)    (Quad)   (Total)
    d1        2.90438   0.00461   0.00000   0.00000   0.00000   2.90438
    a1        1.90637   0.00998   0.00000   0.00000   0.00000   1.90637
    t1        2.09440   0.00020   0.00000   0.00000   0.00000   2.09440
    d2        2.05834   0.00358   0.00000   0.00000   0.00000   2.05834
    a2        1.92272   0.00686   0.00000   0.00000   0.00000   1.92272
    t2       -2.09409   0.00079   0.00000   0.00000   0.00000  -2.09409
    d3        2.06102   0.00260   0.00000   0.00000   0.00000   2.06102
    d4        2.07019  -0.00047   0.00000   0.00000   0.00000   2.07019
    a3        1.90637   0.01002   0.00000   0.00000   0.00000   1.90637
    d5        2.06809   0.00009   0.00000   0.00000   0.00000   2.06809
    a4        1.90654   0.01061   0.00000   0.00000   0.00000   1.90654
    t3        3.14159  -0.00000   0.00000   0.00000   0.00000   3.14159
    d6        2.05958   0.00302   0.00000   0.00000   0.00000   2.05958
    a5        1.90655   0.01058   0.00000   0.00000   0.00000   1.90655
    t4        2.09440   0.00005   0.00000   0.00000   0.00000   2.09440
    d7        2.07112  -0.00101   0.00000   0.00000   0.00000   2.07112
    a6        1.90634   0.01006   0.00000   0.00000   0.00000   1.90634
    t5       -2.09440   0.00011   0.00000   0.00000   0.00000  -2.09440
         Item               Value     Threshold  Converged?
 Maximum Force            0.000000     0.000450     YES
 RMS     Force            0.000000     0.000300     YES
 Maximum Displacement     0.000000     0.001800     YES
 RMS     Displacement     0.000000     0.001200     YES
 Predicted change in Energy=-0.000000D+00
 Optimization completed.
    -- Stationary point found.
                       ----------------------------
                       !   Optimized Parameters   !
                       ! (Angstroms and Degrees)  !
 ----------------------                            ----------------------
 !      Name          Value   Derivative information (Atomic Units)     !
 ------------------------------------------------------------------------
 !       d1          1.5369   -DE/DX =    0.0046                        !
 !       a1        109.2272   -DE/DX =    0.01                          !
 !       t1        120.0001   -DE/DX =    0.0002                        !
 !       d2          1.0892   -DE/DX =    0.0036                        !
 !       a2        110.1636   -DE/DX =    0.0069                        !
 !       t2       -119.9827   -DE/DX =    0.0008                        !
 !       d3          1.0906   -DE/DX =    0.0026                        !
 !       d4          1.0955   -DE/DX =   -0.0005                        !
 !       a3        109.2271   -DE/DX =    0.01                          !
 !       d5          1.0944   -DE/DX =    0.0001                        !
 !       a4        109.2367   -DE/DX =    0.0106                        !
 !       t3        180.0      -DE/DX =    0.0                           !
 !       d6          1.0899   -DE/DX =    0.003                         !
 !       a5        109.237    -DE/DX =    0.0106                        !
 !       t4        120.0      -DE/DX =    0.0                           !
 !       d7          1.096    -DE/DX =   -0.001                         !
 !       a6        109.2251   -DE/DX =    0.0101                        !
 !       t5       -120.0      -DE/DX =    0.0001                        !
 ------------------------------------------------------------------------
 GradGradGradGradGradGradGradGradGradGradGradGradGradGradGradGradGradGrad

 Leave Link  103 at Thu May 27 13:54:57 2021, MaxMem=   13107200 cpu:       0.0
 (Enter /programs/64bit/g09/g09-gfortran/bin/l9999.exe)
 1\1\GINC-MOLMOD\Force\RB3LYP\6-31+G(d,p)\C2H6\OSPITE\27-May-2021\1\\#p
  b3lyp/6-31+g(d,p) force nosym\\c2h6 molecule\\0,1\C\C,1,d1\H,1,d2,2,a
 1\H,1,d3,2,a2,3,t1,0\H,1,d4,2,a3,3,t2,0\H,2,d5,1,a4,3,t3,0\H,2,d6,1,a5
 ,6,t4,0\H,2,d7,1,a6,6,t5,0\\d1=1.53692997\a1=109.22717283\t1=120.00007
 955\d2=1.08922713\a2=110.16362215\t2=-119.98272958\d3=1.09064273\d4=1.
 09549899\a3=109.22714083\d5=1.09438747\a4=109.23674306\t3=179.99999825
 \d6=1.0898836\a5=109.23700023\t4=120.00002451\d7=1.09598924\a6=109.225
 11952\t5=-120.00001882\\Version=EM64L-G09RevA.02\HF=-79.8405878\RMSD=1
 .810e-09\RMSF=3.996e-03\Dipole=0.0015571,-0.002639,-0.0017301\Quadrupo
 le=0.306181,0.3012507,-0.6074317,-0.0047283,0.0098841,0.0113165\PG=C01
  [X(C2H6)]\\@


 DEMOCRATS BUY MOST OF THE BOOKS THAT HAVE BEEN
 BANNED; REPUBLICANS FORM CENSORSHIP COMMITTEES AND
 READ THEM AS A GROUP.
 Job cpu time:  0 days  0 hours  0 minutes  6.8 seconds.
 File lengths (MBytes):  RWF=      5 Int=      0 D2E=      0 Chk=      1 Scr=      1
 Normal termination of Gaussian 09 at Thu May 27 13:54:57 2021.
