 Entering Gaussian System, Link 0=g09
 Input=c2h6_030.com
 Output=c2h6_030.log
 Initial command:
 /programs/64bit/g09/g09-gfortran/bin/l1.exe /data/scratch/Gau-17628.inp -scrdir=/data/scratch/
 Entering Link 1 = /programs/64bit/g09/g09-gfortran/bin/l1.exe PID=     17629.
  
 Copyright (c) 1988,1990,1992,1993,1995,1998,2003,2009, Gaussian, Inc.
                  All Rights Reserved.
  
 This is part of the Gaussian(R) 09 program.  It is based on
 the Gaussian(R) 03 system (copyright 2003, Gaussian, Inc.),
 the Gaussian(R) 98 system (copyright 1998, Gaussian, Inc.),
 the Gaussian(R) 94 system (copyright 1995, Gaussian, Inc.),
 the Gaussian 92(TM) system (copyright 1992, Gaussian, Inc.),
 the Gaussian 90(TM) system (copyright 1990, Gaussian, Inc.),
 the Gaussian 88(TM) system (copyright 1988, Gaussian, Inc.),
 the Gaussian 86(TM) system (copyright 1986, Carnegie Mellon
 University), and the Gaussian 82(TM) system (copyright 1983,
 Carnegie Mellon University). Gaussian is a federally registered
 trademark of Gaussian, Inc.
  
 This software contains proprietary and confidential information,
 including trade secrets, belonging to Gaussian, Inc.
  
 This software is provided under written license and may be
 used, copied, transmitted, or stored only in accord with that
 written license.
  
 The following legend is applicable only to US Government
 contracts under FAR:
  
                    RESTRICTED RIGHTS LEGEND
  
 Use, reproduction and disclosure by the US Government is
 subject to restrictions as set forth in subparagraphs (a)
 and (c) of the Commercial Computer Software - Restricted
 Rights clause in FAR 52.227-19.
  
 Gaussian, Inc.
 340 Quinnipiac St., Bldg. 40, Wallingford CT 06492
  
  
 ---------------------------------------------------------------
 Warning -- This program may not be used in any manner that
 competes with the business of Gaussian, Inc. or will provide
 assistance to any competitor of Gaussian, Inc.  The licensee
 of this program is prohibited from giving any competitor of
 Gaussian, Inc. access to this program.  By using this program,
 the user acknowledges that Gaussian, Inc. is engaged in the
 business of creating and licensing software in the field of
 computational chemistry and represents and warrants to the
 licensee that it is not a competitor of Gaussian, Inc. and that
 it will not use this program in any manner prohibited above.
 ---------------------------------------------------------------
  

 Cite this work as:
 Gaussian 09, Revision A.02,
 M. J. Frisch, G. W. Trucks, H. B. Schlegel, G. E. Scuseria, 
 M. A. Robb, J. R. Cheeseman, G. Scalmani, V. Barone, B. Mennucci, 
 G. A. Petersson, H. Nakatsuji, M. Caricato, X. Li, H. P. Hratchian, 
 A. F. Izmaylov, J. Bloino, G. Zheng, J. L. Sonnenberg, M. Hada, 
 M. Ehara, K. Toyota, R. Fukuda, J. Hasegawa, M. Ishida, T. Nakajima, 
 Y. Honda, O. Kitao, H. Nakai, T. Vreven, J. A. Montgomery, Jr., 
 J. E. Peralta, F. Ogliaro, M. Bearpark, J. J. Heyd, E. Brothers, 
 K. N. Kudin, V. N. Staroverov, R. Kobayashi, J. Normand, 
 K. Raghavachari, A. Rendell, J. C. Burant, S. S. Iyengar, J. Tomasi, 
 M. Cossi, N. Rega, J. M. Millam, M. Klene, J. E. Knox, J. B. Cross, 
 V. Bakken, C. Adamo, J. Jaramillo, R. Gomperts, R. E. Stratmann, 
 O. Yazyev, A. J. Austin, R. Cammi, C. Pomelli, J. W. Ochterski, 
 R. L. Martin, K. Morokuma, V. G. Zakrzewski, G. A. Voth, 
 P. Salvador, J. J. Dannenberg, S. Dapprich, A. D. Daniels, 
 O. Farkas, J. B. Foresman, J. V. Ortiz, J. Cioslowski, 
 and D. J. Fox, Gaussian, Inc., Wallingford CT, 2009.
 
 ******************************************
 Gaussian 09:  EM64L-G09RevA.02 11-Jun-2009
                27-May-2021 
 ******************************************
 %chk=c2h6_030.chk
 %mem=100MB
 --------------------------------
 #p b3lyp/6-31+g(d,p) force nosym
 --------------------------------
 1/10=7,30=1,38=1/1,3;
 2/12=2,15=1,17=6,18=5,40=1/2;
 3/5=1,6=6,7=111,11=2,16=1,25=1,30=1,71=1,74=-5/1,2,3;
 4//1;
 5/5=2,38=5/2;
 6/7=2,8=2,9=2,10=2,28=1/1;
 7/29=1,30=1/1,2,3,16;
 1/10=7,30=1/3;
 99//99;
 Leave Link    1 at Thu May 27 13:54:42 2021, MaxMem=   13107200 cpu:       0.0
 (Enter /programs/64bit/g09/g09-gfortran/bin/l101.exe)
 -------------
 c2h6 molecule
 -------------
 Symbolic Z-matrix:
 Charge =  0 Multiplicity = 1
 C1
 C2                   1    d1
 H3                   1    d2       2    a1
 H4                   1    d3       2    a2       3    t1       0
 H5                   1    d4       2    a3       3    t2       0
 H6                   2    d5       1    a4       3    t3       0
 H7                   2    d6       1    a5       6    t4       0
 H8                   2    d7       1    a6       6    t5       0
       Variables:
       Constants:
  d1                    1.54554                  
  a1                  109.03046                  
  t1                  120.00003                  
  d2                    1.09151                  
  a2                  110.02616                  
  t2                 -119.99904                  
  d3                    1.09423                  
  d4                    1.09412                  
  a3                  109.03037                  
  d5                    1.09417                  
  a4                  109.03085                  
  t3                  180.                       
  d6                    1.09509                  
  a5                  109.03082                  
  t4                  120.00002                  
  d7                    1.09361                  
  a6                  109.03                     
  t5                 -120.00002                  
 
 NAtoms=      8 NQM=      8 NQMF=      0 NMic=      0 NMicF=      0 NTot=      8.
                    Isotopes and Nuclear Properties:
 (Nuclear quadrupole moments (NQMom) in fm**2, nuclear magnetic moments (NMagM)
  in nuclear magnetons)

  Atom         1           2           3           4           5           6           7           8
 IAtWgt=          12          12           1           1           1           1           1           1
 AtmWgt=  12.0000000  12.0000000   1.0078250   1.0078250   1.0078250   1.0078250   1.0078250   1.0078250
 NucSpn=           0           0           1           1           1           1           1           1
 AtZEff=   0.0000000   0.0000000   0.0000000   0.0000000   0.0000000   0.0000000   0.0000000   0.0000000
 NQMom=    0.0000000   0.0000000   0.0000000   0.0000000   0.0000000   0.0000000   0.0000000   0.0000000
 NMagM=    0.0000000   0.0000000   2.7928460   2.7928460   2.7928460   2.7928460   2.7928460   2.7928460
 Leave Link  101 at Thu May 27 13:54:42 2021, MaxMem=   13107200 cpu:       0.0
 (Enter /programs/64bit/g09/g09-gfortran/bin/l103.exe)

 GradGradGradGradGradGradGradGradGradGradGradGradGradGradGradGradGradGrad
 Berny optimization.
 Initialization pass.
                       ----------------------------
                       !    Initial Parameters    !
                       ! (Angstroms and Degrees)  !
 ----------------------                            ----------------------
 !      Name          Value   Derivative information (Atomic Units)     !
 ------------------------------------------------------------------------
 !       d1          1.5455   Frozen                                    !
 !       a1        109.0305   Frozen                                    !
 !       t1        120.0      Frozen                                    !
 !       d2          1.0915   Frozen                                    !
 !       a2        110.0262   Frozen                                    !
 !       t2       -119.999    Frozen                                    !
 !       d3          1.0942   Frozen                                    !
 !       d4          1.0941   Frozen                                    !
 !       a3        109.0304   Frozen                                    !
 !       d5          1.0942   Frozen                                    !
 !       a4        109.0308   Frozen                                    !
 !       t3        180.0      Frozen                                    !
 !       d6          1.0951   Frozen                                    !
 !       a5        109.0308   Frozen                                    !
 !       t4        120.0      Frozen                                    !
 !       d7          1.0936   Frozen                                    !
 !       a6        109.03     Frozen                                    !
 !       t5       -120.0      Frozen                                    !
 ------------------------------------------------------------------------
 Trust Radius=3.00D-01 FncErr=1.00D-07 GrdErr=1.00D-07
 Number of steps in this run=   2 maximum allowed number of steps=   2.
 GradGradGradGradGradGradGradGradGradGradGradGradGradGradGradGradGradGrad

 Leave Link  103 at Thu May 27 13:54:42 2021, MaxMem=   13107200 cpu:       0.0
 (Enter /programs/64bit/g09/g09-gfortran/bin/l202.exe)
                          Input orientation:                          
 ---------------------------------------------------------------------
 Center     Atomic      Atomic             Coordinates (Angstroms)
 Number     Number       Type             X           Y           Z
 ---------------------------------------------------------------------
      1          6           0        0.000000    0.000000    0.000000
      2          6           0        0.000000    0.000000    1.545540
      3          1           0        1.031855    0.000000   -0.355910
      4          1           0       -0.514033   -0.890330   -0.374717
      5          1           0       -0.517146    0.895758   -0.356759
      6          1           0       -1.034370    0.000000    1.902325
      7          1           0        0.517617   -0.896538    1.902622
      8          1           0        0.516921    0.895333    1.902126
 ---------------------------------------------------------------------
                    Distance matrix (angstroms):
                    1          2          3          4          5
     1  C    0.000000
     2  C    1.545540   0.000000
     3  H    1.091511   2.163386   0.000000
     4  H    1.094226   2.178142   1.784043   0.000000
     5  H    1.094120   2.165309   1.789354   1.786181   0.000000
     6  H    2.165355   1.094174   3.060868   2.499672   2.484626
     7  H    2.166028   1.095087   2.483785   2.500123   3.063962
     8  H    2.164928   1.093610   2.483044   3.071722   2.484323
                    6          7          8
     6  H    0.000000
     7  H    1.792329   0.000000
     8  H    1.791125   1.791871   0.000000
 Symmetry turned off by external request.
 Stoichiometry    C2H6
 Framework group  C1[X(C2H6)]
 Deg. of freedom    18
 Full point group                 C1      NOp   1
 Rotational constants (GHZ):     78.3289322     19.9708234     19.9599385
 Leave Link  202 at Thu May 27 13:54:42 2021, MaxMem=   13107200 cpu:       0.0
 (Enter /programs/64bit/g09/g09-gfortran/bin/l301.exe)
 Standard basis: 6-31+G(d,p) (6D, 7F)
 Ernie: Thresh=  0.10000D-02 Tol=  0.10000D-05 Strict=F.
 Integral buffers will be    131072 words long.
 Raffenetti 2 integral format.
 Two-electron integral symmetry is turned off.
    68 basis functions,   106 primitive gaussians,    68 cartesian basis functions
     9 alpha electrons        9 beta electrons
       nuclear repulsion energy        42.1013430652 Hartrees.
 IExCor=  402 DFT=T Ex+Corr=B3LYP ExCW=0 ScaHFX=  0.200000
 ScaDFX=  0.800000  0.720000  1.000000  0.810000 ScalE2=  1.000000  1.000000
 IRadAn=      0 IRanWt=     -1 IRanGd=            0 ICorTp=0
 NAtoms=    8 NActive=    8 NUniq=    8 SFac= 7.50D-01 NAtFMM=   80 NAOKFM=F Big=F
 Leave Link  301 at Thu May 27 13:54:42 2021, MaxMem=   13107200 cpu:       0.0
 (Enter /programs/64bit/g09/g09-gfortran/bin/l302.exe)
 NPDir=0 NMtPBC=     1 NCelOv=     1 NCel=       1 NClECP=     1 NCelD=      1
         NCelK=      1 NCelE2=     1 NClLst=     1 CellRange=     0.0.
 One-electron integrals computed using PRISM.
 NBasis=    68 RedAO= T  NBF=    68
 NBsUse=    68 1.00D-06 NBFU=    68
 Precomputing XC quadrature grid using
 IXCGrd= 2 IRadAn=           0 IRanWt=          -1 IRanGd=           0 AccXCQ= 1.00D-10.
 NRdTot=     510 NPtTot=       65100 NUsed=       68787 NTot=       68819
 NSgBfM=    68    68    68    68    68 NAtAll=     8     8.
 Leave Link  302 at Thu May 27 13:54:42 2021, MaxMem=   13107200 cpu:       0.1
 (Enter /programs/64bit/g09/g09-gfortran/bin/l303.exe)
 DipDrv:  MaxL=1.
 Leave Link  303 at Thu May 27 13:54:42 2021, MaxMem=   13107200 cpu:       0.0
 (Enter /programs/64bit/g09/g09-gfortran/bin/l401.exe)
 Harris functional with IExCor=  402 diagonalized for initial guess.
 ExpMin= 4.38D-02 ExpMax= 3.05D+03 ExpMxC= 4.57D+02 IAcc=2 IRadAn=         0 AccDes= 0.00D+00
 HarFok:  IExCor=  402 AccDes= 0.00D+00 IRadAn=         0 IDoV= 1
 ScaDFX=  1.000000  1.000000  1.000000  1.000000
 FoFCou: FMM=F IPFlag=           0 FMFlag=      100000 FMFlg1=           0
         NFxFlg=           0 DoJE=T BraDBF=F KetDBF=T FulRan=T
         Omega=  0.000000  0.000000  1.000000  0.000000  0.000000 ICntrl=     500 IOpCl=  0
         NMat0=    1 NMatS0=    1 NMatT0=    0 NMatD0=    1 NMtDS0=    0 NMtDT0=    0
         I1Cent=           4 NGrid=           0.
 Symmetry not used in FoFCou.
 Harris En= -79.8975698071748    
 Leave Link  401 at Thu May 27 13:54:43 2021, MaxMem=   13107200 cpu:       0.6
 (Enter /programs/64bit/g09/g09-gfortran/bin/l502.exe)
 Closed shell SCF:
 Requested convergence on RMS density matrix=1.00D-08 within 128 cycles.
 Requested convergence on MAX density matrix=1.00D-06.
 Requested convergence on             energy=1.00D-06.
 No special actions if energy rises.
 Using DIIS extrapolation, IDIIS=  1040.
 Two-electron integral symmetry not used.
        68702 words used for storage of precomputed grid.
 Keep R1 ints in memory in canonical form, NReq=3743087.
 IEnd=      101552 IEndB=      101552 NGot=    13107200 MDV=    10273922
 LenX=    10273922 LenY=    10268857
 Symmetry not used in FoFDir.
 MinBra= 0 MaxBra= 2 Meth= 1.
 IRaf=       0 NMat=   1 IRICut=       1 DoRegI=T DoRafI=F ISym2E= 0 JSym2E=0.

 Cycle   1  Pass 1  IDiag  1:
 E= -79.7096590445161    
 DIIS: error= 3.97D-02 at cycle   1 NSaved=   1.
 NSaved= 1 IEnMin= 1 EnMin= -79.7096590445161     IErMin= 1 ErrMin= 3.97D-02
 ErrMax= 3.97D-02 EMaxC= 1.00D-01 BMatC= 1.15D-01 BMatP= 1.15D-01
 IDIUse=3 WtCom= 6.03D-01 WtEn= 3.97D-01
 Coeff-Com:  0.100D+01
 Coeff-En:   0.100D+01
 Coeff:      0.100D+01
 Gap=     0.283 Goal=   None    Shift=    0.000
 GapD=    0.283 DampG=1.000 DampE=0.500 DampFc=0.5000 IDamp=-1.
 Damping current iteration by 5.00D-01
 RMSDP=9.58D-03 MaxDP=1.39D-01              OVMax= 2.03D-01

 Cycle   2  Pass 1  IDiag  1:
 E= -79.7640765447376     Delta-E=       -0.054417500222 Rises=F Damp=T
 DIIS: error= 1.15D-02 at cycle   2 NSaved=   2.
 NSaved= 2 IEnMin= 2 EnMin= -79.7640765447376     IErMin= 2 ErrMin= 1.15D-02
 ErrMax= 1.15D-02 EMaxC= 1.00D-01 BMatC= 4.49D-03 BMatP= 1.15D-01
 IDIUse=3 WtCom= 8.85D-01 WtEn= 1.15D-01
 Coeff-Com:  0.108D+00 0.892D+00
 Coeff-En:   0.185D+00 0.815D+00
 Coeff:      0.117D+00 0.883D+00
 Gap=     0.372 Goal=   None    Shift=    0.000
 RMSDP=1.28D-03 MaxDP=9.74D-03 DE=-5.44D-02 OVMax= 1.25D-01

 Cycle   3  Pass 1  IDiag  1:
 E= -79.8403255895992     Delta-E=       -0.076249044862 Rises=F Damp=F
 DIIS: error= 2.28D-03 at cycle   3 NSaved=   3.
 NSaved= 3 IEnMin= 3 EnMin= -79.8403255895992     IErMin= 3 ErrMin= 2.28D-03
 ErrMax= 2.28D-03 EMaxC= 1.00D-01 BMatC= 1.52D-04 BMatP= 4.49D-03
 IDIUse=3 WtCom= 9.77D-01 WtEn= 2.28D-02
 Coeff-Com:  0.711D-02 0.106D+00 0.887D+00
 Coeff-En:   0.000D+00 0.000D+00 0.100D+01
 Coeff:      0.695D-02 0.103D+00 0.890D+00
 Gap=     0.365 Goal=   None    Shift=    0.000
 RMSDP=1.97D-04 MaxDP=2.14D-03 DE=-7.62D-02 OVMax= 4.56D-03

 Cycle   4  Pass 1  IDiag  1:
 E= -79.8404560342355     Delta-E=       -0.000130444636 Rises=F Damp=F
 DIIS: error= 6.99D-04 at cycle   4 NSaved=   4.
 NSaved= 4 IEnMin= 4 EnMin= -79.8404560342355     IErMin= 4 ErrMin= 6.99D-04
 ErrMax= 6.99D-04 EMaxC= 1.00D-01 BMatC= 1.05D-05 BMatP= 1.52D-04
 IDIUse=3 WtCom= 9.93D-01 WtEn= 6.99D-03
 Coeff-Com: -0.516D-03-0.516D-02 0.198D+00 0.808D+00
 Coeff-En:   0.000D+00 0.000D+00 0.000D+00 0.100D+01
 Coeff:     -0.513D-03-0.512D-02 0.197D+00 0.809D+00
 Gap=     0.365 Goal=   None    Shift=    0.000
 RMSDP=4.39D-05 MaxDP=4.49D-04 DE=-1.30D-04 OVMax= 1.22D-03

 Cycle   5  Pass 1  IDiag  1:
 E= -79.8404659748694     Delta-E=       -0.000009940634 Rises=F Damp=F
 DIIS: error= 2.48D-05 at cycle   5 NSaved=   5.
 NSaved= 5 IEnMin= 5 EnMin= -79.8404659748694     IErMin= 5 ErrMin= 2.48D-05
 ErrMax= 2.48D-05 EMaxC= 1.00D-01 BMatC= 2.20D-08 BMatP= 1.05D-05
 IDIUse=1 WtCom= 1.00D+00 WtEn= 0.00D+00
 Coeff-Com:  0.374D-03-0.464D-03-0.810D-02-0.175D-01 0.103D+01
 Coeff:      0.374D-03-0.464D-03-0.810D-02-0.175D-01 0.103D+01
 Gap=     0.365 Goal=   None    Shift=    0.000
 RMSDP=2.30D-06 MaxDP=4.46D-05 DE=-9.94D-06 OVMax= 8.26D-05

 Cycle   6  Pass 1  IDiag  1:
 E= -79.8404659998867     Delta-E=       -0.000000025017 Rises=F Damp=F
 DIIS: error= 6.02D-06 at cycle   6 NSaved=   6.
 NSaved= 6 IEnMin= 6 EnMin= -79.8404659998867     IErMin= 6 ErrMin= 6.02D-06
 ErrMax= 6.02D-06 EMaxC= 1.00D-01 BMatC= 1.03D-09 BMatP= 2.20D-08
 IDIUse=1 WtCom= 1.00D+00 WtEn= 0.00D+00
 Coeff-Com:  0.137D-03-0.158D-03-0.396D-02-0.101D-01 0.385D+00 0.629D+00
 Coeff:      0.137D-03-0.158D-03-0.396D-02-0.101D-01 0.385D+00 0.629D+00
 Gap=     0.365 Goal=   None    Shift=    0.000
 RMSDP=4.95D-07 MaxDP=1.04D-05 DE=-2.50D-08 OVMax= 1.45D-05

 Cycle   7  Pass 1  IDiag  1:
 E= -79.8404660007447     Delta-E=       -0.000000000858 Rises=F Damp=F
 DIIS: error= 2.38D-06 at cycle   7 NSaved=   7.
 NSaved= 7 IEnMin= 7 EnMin= -79.8404660007447     IErMin= 7 ErrMin= 2.38D-06
 ErrMax= 2.38D-06 EMaxC= 1.00D-01 BMatC= 1.62D-10 BMatP= 1.03D-09
 IDIUse=1 WtCom= 1.00D+00 WtEn= 0.00D+00
 Coeff-Com: -0.851D-05 0.529D-05-0.223D-03-0.880D-03-0.900D-02 0.281D+00
 Coeff-Com:  0.729D+00
 Coeff:     -0.851D-05 0.529D-05-0.223D-03-0.880D-03-0.900D-02 0.281D+00
 Coeff:      0.729D+00
 Gap=     0.365 Goal=   None    Shift=    0.000
 RMSDP=1.48D-07 MaxDP=3.02D-06 DE=-8.58D-10 OVMax= 4.21D-06

 Cycle   8  Pass 1  IDiag  1:
 E= -79.8404660009045     Delta-E=       -0.000000000160 Rises=F Damp=F
 DIIS: error= 6.94D-08 at cycle   8 NSaved=   8.
 NSaved= 8 IEnMin= 8 EnMin= -79.8404660009045     IErMin= 8 ErrMin= 6.94D-08
 ErrMax= 6.94D-08 EMaxC= 1.00D-01 BMatC= 2.44D-13 BMatP= 1.62D-10
 IDIUse=1 WtCom= 1.00D+00 WtEn= 0.00D+00
 Coeff-Com: -0.268D-05 0.206D-05-0.348D-04-0.183D-03-0.410D-02 0.652D-01
 Coeff-Com:  0.177D+00 0.763D+00
 Coeff:     -0.268D-05 0.206D-05-0.348D-04-0.183D-03-0.410D-02 0.652D-01
 Coeff:      0.177D+00 0.763D+00
 Gap=     0.365 Goal=   None    Shift=    0.000
 RMSDP=1.11D-08 MaxDP=1.32D-07 DE=-1.60D-10 OVMax= 1.95D-07

 Cycle   9  Pass 1  IDiag  1:
 E= -79.8404660009048     Delta-E=       -0.000000000000 Rises=F Damp=F
 DIIS: error= 1.46D-08 at cycle   9 NSaved=   9.
 NSaved= 9 IEnMin= 9 EnMin= -79.8404660009048     IErMin= 9 ErrMin= 1.46D-08
 ErrMax= 1.46D-08 EMaxC= 1.00D-01 BMatC= 1.05D-14 BMatP= 2.44D-13
 IDIUse=1 WtCom= 1.00D+00 WtEn= 0.00D+00
 Coeff-Com: -0.977D-09 0.132D-06 0.699D-05 0.107D-04-0.329D-03-0.431D-02
 Coeff-Com: -0.973D-02 0.147D+00 0.867D+00
 Coeff:     -0.977D-09 0.132D-06 0.699D-05 0.107D-04-0.329D-03-0.431D-02
 Coeff:     -0.973D-02 0.147D+00 0.867D+00
 Gap=     0.365 Goal=   None    Shift=    0.000
 RMSDP=2.15D-09 MaxDP=2.34D-08 DE=-3.27D-13 OVMax= 4.26D-08

 SCF Done:  E(RB3LYP) =  -79.8404660009     A.U. after    9 cycles
             Convg  =    0.2147D-08             -V/T =  2.0109
 KE= 7.897733518519D+01 PE=-2.679498158634D+02 EE= 6.703067161211D+01
 Leave Link  502 at Thu May 27 13:54:48 2021, MaxMem=   13107200 cpu:       4.8
 (Enter /programs/64bit/g09/g09-gfortran/bin/l601.exe)
 Copying SCF densities to generalized density rwf, IOpCl= 0 IROHF=0.

 **********************************************************************

            Population analysis using the SCF density.

 **********************************************************************

 Alpha  occ. eigenvalues --  -10.17741 -10.17684  -0.75283  -0.61311  -0.43900
 Alpha  occ. eigenvalues --   -0.43824  -0.35647  -0.34769  -0.34725
 Alpha virt. eigenvalues --    0.01745   0.03175   0.05276   0.05290   0.07954
 Alpha virt. eigenvalues --    0.08966   0.08972   0.14233   0.18974   0.19048
 Alpha virt. eigenvalues --    0.20453   0.20592   0.24578   0.29426   0.32816
 Alpha virt. eigenvalues --    0.62080   0.64315   0.64378   0.66425   0.66531
 Alpha virt. eigenvalues --    0.69270   0.92060   0.92131   0.97124   0.97198
 Alpha virt. eigenvalues --    0.99658   1.09672   1.11277   1.32030   1.32266
 Alpha virt. eigenvalues --    1.46299   1.68773   1.69017   1.89478   2.04150
 Alpha virt. eigenvalues --    2.04344   2.08604   2.08816   2.09222   2.09485
 Alpha virt. eigenvalues --    2.29171   2.29513   2.37958   2.49209   2.49589
 Alpha virt. eigenvalues --    2.66168   2.72079   2.80553   2.80687   2.91430
 Alpha virt. eigenvalues --    2.91986   3.22223   3.28268   3.36352   3.36618
 Alpha virt. eigenvalues --    3.52078   3.52285   4.33337   4.58171
          Condensed to atoms (all electrons):
              1          2          3          4          5          6
     1  C    5.101819   0.258549   0.405270   0.404657   0.405182  -0.046630
     2  C    0.258549   5.097090  -0.046385  -0.044800  -0.046384   0.405481
     3  H    0.405270  -0.046385   0.556291  -0.028444  -0.027788   0.004809
     4  H    0.404657  -0.044800  -0.028444   0.556024  -0.028366  -0.004371
     5  H    0.405182  -0.046384  -0.027788  -0.028366   0.556725  -0.004472
     6  H   -0.046630   0.405481   0.004809  -0.004371  -0.004472   0.555909
     7  H   -0.046550   0.405366  -0.004473  -0.004367   0.004789  -0.027810
     8  H   -0.047284   0.406510  -0.004519   0.004703  -0.004514  -0.028015
              7          8
     1  C   -0.046550  -0.047284
     2  C    0.405366   0.406510
     3  H   -0.004473  -0.004519
     4  H   -0.004367   0.004703
     5  H    0.004789  -0.004514
     6  H   -0.027810  -0.028015
     7  H    0.556116  -0.027997
     8  H   -0.027997   0.555732
 Mulliken atomic charges:
              1
     1  C   -0.435013
     2  C   -0.435427
     3  H    0.145239
     4  H    0.144963
     5  H    0.144827
     6  H    0.145099
     7  H    0.144927
     8  H    0.145384
 Sum of Mulliken atomic charges =  -0.00000
 Mulliken charges with hydrogens summed into heavy atoms:
              1
     1  C    0.000017
     2  C   -0.000017
 Sum of Mulliken charges with hydrogens summed into heavy atoms =  -0.00000
 Electronic spatial extent (au):  <R**2>=            148.4859
 Charge=             -0.0000 electrons
 Dipole moment (field-independent basis, Debye):
    X=              0.0018    Y=              0.0011    Z=             -0.0036  Tot=              0.0042
 Quadrupole moment (field-independent basis, Debye-Ang):
   XX=            -14.9400   YY=            -14.9479   ZZ=            -16.1985
   XY=             -0.0072   XZ=              0.0125   YZ=              0.0247
 Traceless Quadrupole moment (field-independent basis, Debye-Ang):
   XX=              0.4222   YY=              0.4142   ZZ=             -0.8364
   XY=             -0.0072   XZ=              0.0125   YZ=              0.0247
 Octapole moment (field-independent basis, Debye-Ang**2):
  XXX=             -0.0032  YYY=             -0.0016  ZZZ=            -37.5614  XYY=              0.0135
  XXY=             -0.0006  XXZ=            -11.5278  XZZ=              0.0023  YZZ=              0.0021
  YYZ=            -11.5310  XYZ=             -0.0024
 Hexadecapole moment (field-independent basis, Debye-Ang**3):
 XXXX=            -31.2877 YYYY=            -31.3231 ZZZZ=           -157.5065 XXXY=              0.0090
 XXXZ=             -1.3268 YYYX=              0.0030 YYYZ=              0.0136 ZZZX=              0.0022
 ZZZY=              0.0448 XXYY=            -10.4351 XXZZ=            -29.5851 YYZZ=            -29.5730
 XXYZ=              0.0045 YYXZ=              1.3144 ZZXY=              0.0169
 N-N= 4.210134306521D+01 E-N=-2.679498160187D+02  KE= 7.897733518519D+01
 No NMR shielding tensors so no spin-rotation constants.
 Leave Link  601 at Thu May 27 13:54:48 2021, MaxMem=   13107200 cpu:       0.0
 (Enter /programs/64bit/g09/g09-gfortran/bin/l701.exe)
 Compute integral first derivatives.
 ... and contract with generalized density number  0.
 Leave Link  701 at Thu May 27 13:54:48 2021, MaxMem=   13107200 cpu:       0.0
 (Enter /programs/64bit/g09/g09-gfortran/bin/l702.exe)
 L702 exits ... SP integral derivatives will be done elsewhere.
 Leave Link  702 at Thu May 27 13:54:48 2021, MaxMem=   13107200 cpu:       0.0
 (Enter /programs/64bit/g09/g09-gfortran/bin/l703.exe)
 Compute integral first derivatives, UseDBF=F ICtDFT=           0.
 Integral derivatives from FoFDir, PRISM(SPDF).
 Calling FoFJK, ICntrl=      2127 FMM=F ISym2X=0 I1Cent= 0 IOpClX= 0 NMat=1 NMatS=1 NMatT=0.
 FoFCou: FMM=F IPFlag=           0 FMFlag=      100000 FMFlg1=         800
         NFxFlg=           0 DoJE=F BraDBF=F KetDBF=F FulRan=T
         Omega=  0.000000  0.000000  1.000000  0.000000  0.000000 ICntrl=    2127 IOpCl=  0
         NMat0=    1 NMatS0=    1 NMatT0=    0 NMatD0=    1 NMtDS0=    0 NMtDT0=    0
         I1Cent=           0 NGrid=           0.
 Symmetry not used in FoFCou.
 Leave Link  703 at Thu May 27 13:54:49 2021, MaxMem=   13107200 cpu:       1.1
 (Enter /programs/64bit/g09/g09-gfortran/bin/l716.exe)
 Dipole        = 7.20301022D-04 4.14801365D-04-1.41633560D-03
 -------------------------------------------------------------------
 Center     Atomic                   Forces (Hartrees/Bohr)
 Number     Number              X              Y              Z
 -------------------------------------------------------------------
      1        6          -0.001127315    0.000549361    0.012827966
      2        6          -0.000536447   -0.001701594   -0.014147894
      3        1           0.000162509    0.000480151   -0.005417892
      4        1           0.000500773    0.000949345   -0.003284486
      5        1           0.001082797   -0.000999342   -0.004854206
      6        1           0.001692369   -0.000027699    0.005091304
      7        1          -0.001119341    0.001919493    0.004889878
      8        1          -0.000655343   -0.001169715    0.004895329
 -------------------------------------------------------------------
 Cartesian Forces:  Max     0.014147894 RMS     0.004655448
 -----------------------------------------------------------------------------------------------
                       Internal Coordinate Forces (Hartree/Bohr or radian)
  Cent   Atom   N1       Length/X         N2         Alpha/Y        N3         Beta/Z          J
 -----------------------------------------------------------------------------------------------
      1  C 
      2  C        1   0.000729(     1)
      3  H        1   0.001920(     2)      2   0.010455(     8)
      4  H        1   0.000117(     3)      2   0.007140(     9)      3   0.000080(    14)     0
      5  H        1   0.000253(     4)      2   0.010436(    10)      3   0.000856(    15)     0
      6  H        2   0.000060(     5)      1   0.011093(    11)      3   0.000001(    16)     0
      7  H        2  -0.000506(     6)      1   0.011065(    12)      6  -0.000019(    17)     0
      8  H        2   0.000329(     7)      1   0.010467(    13)      6  -0.000034(    18)     0
 -----------------------------------------------------------------------------------------------
 Internal  Forces:  Max     0.011092890 RMS     0.005914587
 Force constants in Cartesian coordinates: 
                1             2             3             4             5 
      1  0.657800D+00
      2 -0.100737D-02  0.654332D+00
      3  0.111772D-02  0.337831D-02  0.596326D+00
      4 -0.853190D-01 -0.164681D-03 -0.132039D-03  0.657108D+00
      5 -0.164693D-03 -0.854831D-01 -0.124160D-03  0.553382D-03  0.656947D+00
      6 -0.391935D-05  0.294901D-04 -0.280337D+00 -0.565498D-04  0.401737D-03
      7 -0.314105D+00 -0.804869D-04  0.833842D-01  0.868846D-02 -0.164495D-05
      8 -0.250855D-03 -0.787707D-01 -0.171434D-03 -0.670902D-05  0.730747D-03
      9  0.935876D-01 -0.233348D-03 -0.104638D+00  0.251896D-01 -0.476903D-05
     10 -0.135921D+00 -0.993984D-01 -0.429768D-01  0.284874D-02  0.361122D-02
     11 -0.994678D-01 -0.250807D+00 -0.745122D-01  0.361161D-02  0.701922D-02
     12 -0.481276D-01 -0.833829D-01 -0.107292D+00 -0.124891D-01 -0.216316D-01
     13 -0.136529D+00  0.100646D+00 -0.413931D-01  0.271773D-02 -0.344138D-02
     14  0.100886D+00 -0.253345D+00  0.714295D-01 -0.343672D-02  0.667989D-02
     15 -0.465777D-01  0.802380D-01 -0.104059D+00 -0.125685D-01  0.217605D-01
     16  0.866667D-02  0.000000D+00  0.000000D+00 -0.311465D+00 -0.233588D-05
     17 -0.995377D-05  0.721496D-03  0.000000D+00  0.439147D-04 -0.793158D-01
     18  0.251259D-01  0.000000D+00  0.000000D+00  0.924293D-01 -0.679538D-05
     19  0.271097D-02 -0.344305D-02  0.000000D+00 -0.137048D+00  0.100181D+00
     20 -0.343433D-02  0.667157D-02  0.000000D+00  0.100159D+00 -0.252690D+00
     21 -0.125524D-01  0.217415D-01  0.000000D+00 -0.460763D-01  0.798016D-01
     22  0.269715D-02  0.344764D-02  0.000000D+00 -0.137531D+00 -0.100735D+00
     23  0.344888D-02  0.668027D-02  0.000000D+00 -0.100759D+00 -0.253888D+00
     24 -0.125695D-01 -0.217710D-01  0.000000D+00 -0.462965D-01 -0.801965D-01
                6             7             8             9            10 
      6  0.590527D+00
      7  0.000000D+00  0.315589D+00
      8  0.000000D+00  0.954673D-04  0.587784D-01
      9  0.000000D+00 -0.892864D-01  0.276779D-03  0.875264D-01
     10  0.000000D+00 -0.516374D-02 -0.272660D-01 -0.149707D-01  0.121428D+00
     11  0.000000D+00  0.172052D-02  0.943611D-02  0.498813D-02  0.108659D+00
     12  0.000000D+00  0.299562D-02  0.149829D-01  0.868491D-02  0.461707D-01
     13  0.000000D+00 -0.500832D-02  0.274274D-01 -0.145201D-01  0.168076D-01
     14  0.000000D+00 -0.173385D-02  0.982529D-02 -0.502679D-02  0.143939D-01
     15  0.000000D+00  0.290651D-02 -0.150883D-01  0.842655D-02  0.117769D-01
     16  0.827569D-01  0.000000D+00  0.000000D+00  0.000000D+00  0.000000D+00
     17 -0.204533D-04  0.000000D+00  0.603442D-03  0.000000D+00  0.524523D-03
     18 -0.103423D+00  0.000000D+00  0.000000D+00  0.000000D+00  0.000000D+00
     19 -0.412415D-01  0.000000D+00 -0.522160D-03  0.000000D+00 -0.453871D-03
     20  0.714168D-01  0.000000D+00 -0.301470D-03  0.000000D+00 -0.262043D-03
     21 -0.103223D+00  0.000000D+00  0.000000D+00  0.000000D+00  0.000000D+00
     22 -0.414550D-01  0.000000D+00  0.522863D-03  0.000000D+00  0.454482D-03
     23 -0.718276D-01  0.000000D+00 -0.301875D-03  0.000000D+00 -0.262395D-03
     24 -0.103544D+00  0.000000D+00  0.000000D+00  0.000000D+00  0.000000D+00
               11            12            13            14            15 
     11  0.246896D+00
     12  0.799701D-01  0.899422D-01
     13 -0.145231D-01  0.114504D-01  0.122013D+00
     14 -0.125450D-01  0.100615D-01 -0.110109D+00  0.249385D+00
     15 -0.104460D-01  0.866445D-02  0.444628D-01 -0.764642D-01  0.869682D-01
     16  0.000000D+00  0.000000D+00  0.000000D+00  0.000000D+00  0.000000D+00
     17 -0.302834D-03  0.000000D+00 -0.521354D-03 -0.300993D-03  0.000000D+00
     18  0.000000D+00  0.000000D+00  0.000000D+00  0.000000D+00  0.000000D+00
     19  0.262043D-03  0.000000D+00  0.451130D-03  0.260450D-03  0.000000D+00
     20  0.151291D-03  0.000000D+00  0.260460D-03  0.150371D-03  0.000000D+00
     21  0.000000D+00  0.000000D+00  0.000000D+00  0.000000D+00  0.000000D+00
     22 -0.262395D-03  0.000000D+00 -0.451737D-03 -0.260800D-03  0.000000D+00
     23  0.151494D-03  0.000000D+00  0.260810D-03  0.150573D-03  0.000000D+00
     24  0.000000D+00  0.000000D+00  0.000000D+00  0.000000D+00  0.000000D+00
               16            17            18            19            20 
     16  0.312792D+00
     17  0.000000D+00  0.589938D-01
     18 -0.885830D-01  0.000000D+00  0.865324D-01
     19 -0.499337D-02  0.273353D-01 -0.144765D-01  0.122137D+00
     20 -0.172346D-02  0.979366D-02 -0.499656D-02 -0.109536D+00  0.248618D+00
     21  0.291110D-02 -0.150353D-01  0.843968D-02  0.441464D-01 -0.764642D-01
     22 -0.500003D-02 -0.273724D-01 -0.144958D-01  0.171964D-01  0.145370D-01
     23  0.172583D-02  0.980717D-02  0.500342D-02 -0.145369D-01 -0.123932D-01
     24  0.291495D-02  0.150558D-01  0.845083D-02  0.115715D-01  0.100439D-01
               21            22            23            24 
     21  0.863391D-01
     22  0.115712D-01  0.122634D+00
     23 -0.100436D-01  0.110123D+00  0.249793D+00
     24  0.844378D-02  0.443795D-01  0.768678D-01  0.866496D-01
 Force constants in internal coordinates: 
                1             2             3             4             5 
      1  0.280337D+00
      2  0.000000D+00  0.346386D+00
      3  0.000000D+00  0.000000D+00  0.343288D+00
      4  0.000000D+00  0.000000D+00  0.000000D+00  0.343408D+00
      5  0.000000D+00  0.000000D+00  0.000000D+00  0.000000D+00  0.343347D+00
      6  0.000000D+00  0.000000D+00  0.000000D+00  0.000000D+00  0.000000D+00
      7  0.000000D+00  0.000000D+00  0.000000D+00  0.000000D+00  0.000000D+00
      8  0.000000D+00  0.000000D+00  0.000000D+00  0.000000D+00  0.000000D+00
      9  0.000000D+00  0.000000D+00  0.000000D+00  0.000000D+00  0.000000D+00
     10  0.000000D+00  0.000000D+00  0.000000D+00  0.000000D+00  0.000000D+00
     11  0.000000D+00  0.000000D+00  0.000000D+00  0.000000D+00  0.000000D+00
     12  0.000000D+00  0.000000D+00  0.000000D+00  0.000000D+00  0.000000D+00
     13  0.000000D+00  0.000000D+00  0.000000D+00  0.000000D+00  0.000000D+00
     14  0.000000D+00  0.000000D+00  0.000000D+00  0.000000D+00  0.000000D+00
     15  0.000000D+00  0.000000D+00  0.000000D+00  0.000000D+00  0.000000D+00
     16  0.000000D+00  0.000000D+00  0.000000D+00  0.000000D+00  0.000000D+00
     17  0.000000D+00  0.000000D+00  0.000000D+00  0.000000D+00  0.000000D+00
     18  0.000000D+00  0.000000D+00  0.000000D+00  0.000000D+00  0.000000D+00
                6             7             8             9            10 
      6  0.342314D+00
      7  0.000000D+00  0.343987D+00
      8  0.000000D+00  0.000000D+00  0.241359D+00
      9  0.000000D+00  0.000000D+00  0.417056D-01  0.240660D+00
     10  0.000000D+00  0.000000D+00  0.402124D-01  0.417067D-01  0.241360D+00
     11  0.000000D+00  0.000000D+00  0.000000D+00  0.000000D+00  0.000000D+00
     12  0.000000D+00  0.000000D+00  0.000000D+00  0.000000D+00  0.000000D+00
     13  0.000000D+00  0.000000D+00  0.000000D+00  0.000000D+00  0.000000D+00
     14  0.000000D+00  0.000000D+00 -0.655300D-01  0.000000D+00  0.655295D-01
     15  0.000000D+00  0.000000D+00  0.643473D-01 -0.642987D-01 -0.117703D-02
     16  0.000000D+00  0.000000D+00  0.000000D+00  0.000000D+00  0.000000D+00
     17  0.000000D+00  0.000000D+00  0.000000D+00  0.000000D+00  0.000000D+00
     18  0.000000D+00  0.000000D+00  0.000000D+00  0.000000D+00  0.000000D+00
               11            12            13            14            15 
     11  0.239323D+00
     12  0.404092D-01  0.239323D+00
     13  0.404078D-01  0.404078D-01  0.239324D+00
     14  0.000000D+00  0.000000D+00  0.000000D+00  0.221529D+00
     15  0.000000D+00  0.000000D+00  0.000000D+00 -0.107324D+00  0.223487D+00
     16  0.000000D+00  0.000000D+00  0.000000D+00  0.690000D-02  0.690000D-02
     17 -0.643345D-01  0.000000D+00  0.643348D-01  0.230000D-02  0.230000D-02
     18  0.643342D-01 -0.643337D-01  0.000000D+00  0.230000D-02  0.230000D-02
               16            17            18 
     16  0.207000D-01
     17  0.690020D-02  0.225402D+00
     18  0.689984D-02 -0.109252D+00  0.225403D+00
 Leave Link  716 at Thu May 27 13:54:49 2021, MaxMem=   13107200 cpu:       0.0
 (Enter /programs/64bit/g09/g09-gfortran/bin/l103.exe)

 GradGradGradGradGradGradGradGradGradGradGradGradGradGradGradGradGradGrad
 Berny optimization.
 Search for a local minimum.
 Step number   1 out of a maximum of    2
 All quantities printed in internal units (Hartrees-Bohrs-Radians)
 Second derivative matrix not updated -- first step.
 The second derivative matrix:
                          d1        a1        t1        d2        a2
           d1           0.28034
           a1           0.00000   0.24136
           t1           0.00000  -0.06553   0.22153
           d2           0.00000   0.00000   0.00000   0.34639
           a2          -0.00000   0.04171  -0.00000  -0.00000   0.24066
           t2           0.00000   0.06435  -0.10732  -0.00000  -0.06430
           d3           0.00000   0.00000  -0.00000   0.00000   0.00000
           d4           0.00000   0.00000  -0.00000   0.00000   0.00000
           a3          -0.00000   0.04021   0.06553  -0.00000   0.04171
           d5           0.00000   0.00000   0.00000   0.00000   0.00000
           a4           0.00000   0.00000   0.00000   0.00000  -0.00000
           t3           0.00000   0.00000   0.00690   0.00000  -0.00000
           d6           0.00000   0.00000  -0.00000   0.00000   0.00000
           a5           0.00000   0.00000   0.00000   0.00000  -0.00000
           t4           0.00000   0.00000   0.00230   0.00000   0.00000
           d7           0.00000   0.00000   0.00000   0.00000   0.00000
           a6           0.00000   0.00000  -0.00000   0.00000  -0.00000
           t5           0.00000   0.00000   0.00230   0.00000  -0.00000
                          t2        d3        d4        a3        d5
           t2           0.22349
           d3           0.00000   0.34329
           d4           0.00000   0.00000   0.34341
           a3          -0.00118  -0.00000   0.00000   0.24136
           d5           0.00000   0.00000  -0.00000   0.00000   0.34335
           a4           0.00000   0.00000   0.00000  -0.00000   0.00000
           t3           0.00690   0.00000   0.00000   0.00000  -0.00000
           d6           0.00000   0.00000   0.00000  -0.00000   0.00000
           a5           0.00000  -0.00000  -0.00000   0.00000  -0.00000
           t4           0.00230  -0.00000   0.00000  -0.00000  -0.00000
           d7           0.00000  -0.00000  -0.00000   0.00000   0.00000
           a6          -0.00000   0.00000   0.00000  -0.00000   0.00000
           t5           0.00230   0.00000   0.00000  -0.00000   0.00000
                          a4        t3        d6        a5        t4
           a4           0.23932
           t3           0.00000   0.02070
           d6          -0.00000   0.00000   0.34231
           a5           0.04041  -0.00000   0.00000   0.23932
           t4          -0.06433   0.00690   0.00000  -0.00000   0.22540
           d7           0.00000  -0.00000   0.00000   0.00000   0.00000
           a6           0.04041  -0.00000   0.00000   0.04041   0.06433
           t5           0.06433   0.00690  -0.00000  -0.06433  -0.10925
                          d7        a6        t5
           d7           0.34399
           a6           0.00000   0.23932
           t5          -0.00000   0.00000   0.22540
     Eigenvalues --- 1000.000001000.000001000.000001000.000001000.00000
     Eigenvalues --- 1000.000001000.000001000.000001000.000001000.00000
     Eigenvalues --- 1000.000001000.000001000.000001000.000001000.00000
     Eigenvalues --- 1000.000001000.000001000.00000
 Angle between quadratic step and forces=  90.00 degrees.
 Linear search not attempted -- first point.
 Variable       Old X    -DE/DX   Delta X   Delta X   Delta X     New X
                                 (Linear)    (Quad)   (Total)
    d1        2.92065   0.00073   0.00000   0.00000   0.00000   2.92065
    a1        1.90294   0.01046   0.00000   0.00000   0.00000   1.90294
    t1        2.09440   0.00008   0.00000   0.00000   0.00000   2.09440
    d2        2.06266   0.00192   0.00000   0.00000   0.00000   2.06266
    a2        1.92032   0.00714   0.00000   0.00000   0.00000   1.92032
    t2       -2.09438   0.00086   0.00000   0.00000   0.00000  -2.09438
    d3        2.06779   0.00012   0.00000   0.00000   0.00000   2.06779
    d4        2.06759   0.00025   0.00000   0.00000   0.00000   2.06759
    a3        1.90294   0.01044   0.00000   0.00000   0.00000   1.90294
    d5        2.06769   0.00006   0.00000   0.00000   0.00000   2.06769
    a4        1.90295   0.01109   0.00000   0.00000   0.00000   1.90295
    t3        3.14159   0.00000   0.00000   0.00000   0.00000   3.14159
    d6        2.06941  -0.00051   0.00000   0.00000   0.00000   2.06941
    a5        1.90295   0.01107   0.00000   0.00000   0.00000   1.90295
    t4        2.09440  -0.00002   0.00000   0.00000   0.00000   2.09440
    d7        2.06662   0.00033   0.00000   0.00000   0.00000   2.06662
    a6        1.90293   0.01047   0.00000   0.00000   0.00000   1.90293
    t5       -2.09440  -0.00003   0.00000   0.00000   0.00000  -2.09440
         Item               Value     Threshold  Converged?
 Maximum Force            0.000000     0.000450     YES
 RMS     Force            0.000000     0.000300     YES
 Maximum Displacement     0.000000     0.001800     YES
 RMS     Displacement     0.000000     0.001200     YES
 Predicted change in Energy=-0.000000D+00
 Optimization completed.
    -- Stationary point found.
                       ----------------------------
                       !   Optimized Parameters   !
                       ! (Angstroms and Degrees)  !
 ----------------------                            ----------------------
 !      Name          Value   Derivative information (Atomic Units)     !
 ------------------------------------------------------------------------
 !       d1          1.5455   -DE/DX =    0.0007                        !
 !       a1        109.0305   -DE/DX =    0.0105                        !
 !       t1        120.0      -DE/DX =    0.0001                        !
 !       d2          1.0915   -DE/DX =    0.0019                        !
 !       a2        110.0262   -DE/DX =    0.0071                        !
 !       t2       -119.999    -DE/DX =    0.0009                        !
 !       d3          1.0942   -DE/DX =    0.0001                        !
 !       d4          1.0941   -DE/DX =    0.0003                        !
 !       a3        109.0304   -DE/DX =    0.0104                        !
 !       d5          1.0942   -DE/DX =    0.0001                        !
 !       a4        109.0308   -DE/DX =    0.0111                        !
 !       t3        180.0      -DE/DX =    0.0                           !
 !       d6          1.0951   -DE/DX =   -0.0005                        !
 !       a5        109.0308   -DE/DX =    0.0111                        !
 !       t4        120.0      -DE/DX =    0.0                           !
 !       d7          1.0936   -DE/DX =    0.0003                        !
 !       a6        109.03     -DE/DX =    0.0105                        !
 !       t5       -120.0      -DE/DX =    0.0                           !
 ------------------------------------------------------------------------
 GradGradGradGradGradGradGradGradGradGradGradGradGradGradGradGradGradGrad

 Leave Link  103 at Thu May 27 13:54:49 2021, MaxMem=   13107200 cpu:       0.0
 (Enter /programs/64bit/g09/g09-gfortran/bin/l9999.exe)
 1\1\GINC-MOLMOD\Force\RB3LYP\6-31+G(d,p)\C2H6\OSPITE\27-May-2021\1\\#p
  b3lyp/6-31+g(d,p) force nosym\\c2h6 molecule\\0,1\C\C,1,d1\H,1,d2,2,a
 1\H,1,d3,2,a2,3,t1,0\H,1,d4,2,a3,3,t2,0\H,2,d5,1,a4,3,t3,0\H,2,d6,1,a5
 ,6,t4,0\H,2,d7,1,a6,6,t5,0\\d1=1.54554023\a1=109.03045506\t1=120.00003
 008\d2=1.09151122\a2=110.02616186\t2=-119.99904326\d3=1.09422579\d4=1.
 09412043\a3=109.03036884\d5=1.09417416\a4=109.03084773\t3=179.99999825
 \d6=1.09508667\a5=109.03082027\t4=120.00002415\d7=1.09361023\a6=109.02
 999726\t5=-120.00001896\\Version=EM64L-G09RevA.02\HF=-79.840466\RMSD=2
 .147e-09\RMSF=4.655e-03\Dipole=0.0007203,0.0004148,-0.0014163\Quadrupo
 le=0.3138631,0.3079728,-0.6218359,-0.0053796,0.0092752,0.0183828\PG=C0
 1 [X(C2H6)]\\@


 MICRO CREDO - NEVER TRUST A COMPUTER BIGGER
               BIGGER THAN YOU CAN LIFT.
 Job cpu time:  0 days  0 hours  0 minutes  6.8 seconds.
 File lengths (MBytes):  RWF=      5 Int=      0 D2E=      0 Chk=      1 Scr=      1
 Normal termination of Gaussian 09 at Thu May 27 13:54:49 2021.
