 Entering Gaussian System, Link 0=g09
 Input=c2h6_005.com
 Output=c2h6_005.log
 Initial command:
 /programs/64bit/g09/g09-gfortran/bin/l1.exe /data/scratch/Gau-16970.inp -scrdir=/data/scratch/
 Entering Link 1 = /programs/64bit/g09/g09-gfortran/bin/l1.exe PID=     16971.
  
 Copyright (c) 1988,1990,1992,1993,1995,1998,2003,2009, Gaussian, Inc.
                  All Rights Reserved.
  
 This is part of the Gaussian(R) 09 program.  It is based on
 the Gaussian(R) 03 system (copyright 2003, Gaussian, Inc.),
 the Gaussian(R) 98 system (copyright 1998, Gaussian, Inc.),
 the Gaussian(R) 94 system (copyright 1995, Gaussian, Inc.),
 the Gaussian 92(TM) system (copyright 1992, Gaussian, Inc.),
 the Gaussian 90(TM) system (copyright 1990, Gaussian, Inc.),
 the Gaussian 88(TM) system (copyright 1988, Gaussian, Inc.),
 the Gaussian 86(TM) system (copyright 1986, Carnegie Mellon
 University), and the Gaussian 82(TM) system (copyright 1983,
 Carnegie Mellon University). Gaussian is a federally registered
 trademark of Gaussian, Inc.
  
 This software contains proprietary and confidential information,
 including trade secrets, belonging to Gaussian, Inc.
  
 This software is provided under written license and may be
 used, copied, transmitted, or stored only in accord with that
 written license.
  
 The following legend is applicable only to US Government
 contracts under FAR:
  
                    RESTRICTED RIGHTS LEGEND
  
 Use, reproduction and disclosure by the US Government is
 subject to restrictions as set forth in subparagraphs (a)
 and (c) of the Commercial Computer Software - Restricted
 Rights clause in FAR 52.227-19.
  
 Gaussian, Inc.
 340 Quinnipiac St., Bldg. 40, Wallingford CT 06492
  
  
 ---------------------------------------------------------------
 Warning -- This program may not be used in any manner that
 competes with the business of Gaussian, Inc. or will provide
 assistance to any competitor of Gaussian, Inc.  The licensee
 of this program is prohibited from giving any competitor of
 Gaussian, Inc. access to this program.  By using this program,
 the user acknowledges that Gaussian, Inc. is engaged in the
 business of creating and licensing software in the field of
 computational chemistry and represents and warrants to the
 licensee that it is not a competitor of Gaussian, Inc. and that
 it will not use this program in any manner prohibited above.
 ---------------------------------------------------------------
  

 Cite this work as:
 Gaussian 09, Revision A.02,
 M. J. Frisch, G. W. Trucks, H. B. Schlegel, G. E. Scuseria, 
 M. A. Robb, J. R. Cheeseman, G. Scalmani, V. Barone, B. Mennucci, 
 G. A. Petersson, H. Nakatsuji, M. Caricato, X. Li, H. P. Hratchian, 
 A. F. Izmaylov, J. Bloino, G. Zheng, J. L. Sonnenberg, M. Hada, 
 M. Ehara, K. Toyota, R. Fukuda, J. Hasegawa, M. Ishida, T. Nakajima, 
 Y. Honda, O. Kitao, H. Nakai, T. Vreven, J. A. Montgomery, Jr., 
 J. E. Peralta, F. Ogliaro, M. Bearpark, J. J. Heyd, E. Brothers, 
 K. N. Kudin, V. N. Staroverov, R. Kobayashi, J. Normand, 
 K. Raghavachari, A. Rendell, J. C. Burant, S. S. Iyengar, J. Tomasi, 
 M. Cossi, N. Rega, J. M. Millam, M. Klene, J. E. Knox, J. B. Cross, 
 V. Bakken, C. Adamo, J. Jaramillo, R. Gomperts, R. E. Stratmann, 
 O. Yazyev, A. J. Austin, R. Cammi, C. Pomelli, J. W. Ochterski, 
 R. L. Martin, K. Morokuma, V. G. Zakrzewski, G. A. Voth, 
 P. Salvador, J. J. Dannenberg, S. Dapprich, A. D. Daniels, 
 O. Farkas, J. B. Foresman, J. V. Ortiz, J. Cioslowski, 
 and D. J. Fox, Gaussian, Inc., Wallingford CT, 2009.
 
 ******************************************
 Gaussian 09:  EM64L-G09RevA.02 11-Jun-2009
                27-May-2021 
 ******************************************
 %chk=c2h6_005.chk
 %mem=100MB
 --------------------------------
 #p b3lyp/6-31+g(d,p) force nosym
 --------------------------------
 1/10=7,30=1,38=1/1,3;
 2/12=2,15=1,17=6,18=5,40=1/2;
 3/5=1,6=6,7=111,11=2,16=1,25=1,30=1,71=1,74=-5/1,2,3;
 4//1;
 5/5=2,38=5/2;
 6/7=2,8=2,9=2,10=2,28=1/1;
 7/29=1,30=1/1,2,3,16;
 1/10=7,30=1/3;
 99//99;
 Leave Link    1 at Thu May 27 13:50:14 2021, MaxMem=   13107200 cpu:       0.0
 (Enter /programs/64bit/g09/g09-gfortran/bin/l101.exe)
 -------------
 c2h6 molecule
 -------------
 Symbolic Z-matrix:
 Charge =  0 Multiplicity = 1
 C1
 C2                   1    d1
 H3                   1    d2       2    a1
 H4                   1    d3       2    a2       3    t1       0
 H5                   1    d4       2    a3       3    t2       0
 H6                   2    d5       1    a4       3    t3       0
 H7                   2    d6       1    a5       6    t4       0
 H8                   2    d7       1    a6       6    t5       0
       Variables:
       Constants:
  d1                    3.59547                  
  a1                  109.00075                  
  t1                  120.00002                  
  d2                    1.09328                  
  a2                  110.00056                  
  t2                 -119.99999                  
  d3                    1.09157                  
  d4                    1.08967                  
  a3                  109.00067                  
  d5                    1.09292                  
  a4                  109.00076                  
  t3                  180.                       
  d6                    1.09093                  
  a5                  109.00068                  
  t4                  120.00002                  
  d7                    1.08939                  
  a6                  109.00068                  
  t5                 -120.00001                  
 
 NAtoms=      8 NQM=      8 NQMF=      0 NMic=      0 NMicF=      0 NTot=      8.
                    Isotopes and Nuclear Properties:
 (Nuclear quadrupole moments (NQMom) in fm**2, nuclear magnetic moments (NMagM)
  in nuclear magnetons)

  Atom         1           2           3           4           5           6           7           8
 IAtWgt=          12          12           1           1           1           1           1           1
 AtmWgt=  12.0000000  12.0000000   1.0078250   1.0078250   1.0078250   1.0078250   1.0078250   1.0078250
 NucSpn=           0           0           1           1           1           1           1           1
 AtZEff=   0.0000000   0.0000000   0.0000000   0.0000000   0.0000000   0.0000000   0.0000000   0.0000000
 NQMom=    0.0000000   0.0000000   0.0000000   0.0000000   0.0000000   0.0000000   0.0000000   0.0000000
 NMagM=    0.0000000   0.0000000   2.7928460   2.7928460   2.7928460   2.7928460   2.7928460   2.7928460
 Leave Link  101 at Thu May 27 13:50:14 2021, MaxMem=   13107200 cpu:       0.0
 (Enter /programs/64bit/g09/g09-gfortran/bin/l103.exe)

 GradGradGradGradGradGradGradGradGradGradGradGradGradGradGradGradGradGrad
 Berny optimization.
 Initialization pass.
                       ----------------------------
                       !    Initial Parameters    !
                       ! (Angstroms and Degrees)  !
 ----------------------                            ----------------------
 !      Name          Value   Derivative information (Atomic Units)     !
 ------------------------------------------------------------------------
 !       d1          3.5955   Frozen                                    !
 !       a1        109.0007   Frozen                                    !
 !       t1        120.0      Frozen                                    !
 !       d2          1.0933   Frozen                                    !
 !       a2        110.0006   Frozen                                    !
 !       t2       -120.0      Frozen                                    !
 !       d3          1.0916   Frozen                                    !
 !       d4          1.0897   Frozen                                    !
 !       a3        109.0007   Frozen                                    !
 !       d5          1.0929   Frozen                                    !
 !       a4        109.0008   Frozen                                    !
 !       t3        180.0      Frozen                                    !
 !       d6          1.0909   Frozen                                    !
 !       a5        109.0007   Frozen                                    !
 !       t4        120.0      Frozen                                    !
 !       d7          1.0894   Frozen                                    !
 !       a6        109.0007   Frozen                                    !
 !       t5       -120.0      Frozen                                    !
 ------------------------------------------------------------------------
 Trust Radius=3.00D-01 FncErr=1.00D-07 GrdErr=1.00D-07
 Number of steps in this run=   2 maximum allowed number of steps=   2.
 GradGradGradGradGradGradGradGradGradGradGradGradGradGradGradGradGradGrad

 Leave Link  103 at Thu May 27 13:50:15 2021, MaxMem=   13107200 cpu:       0.0
 (Enter /programs/64bit/g09/g09-gfortran/bin/l202.exe)
                          Input orientation:                          
 ---------------------------------------------------------------------
 Center     Atomic      Atomic             Coordinates (Angstroms)
 Number     Number       Type             X           Y           Z
 ---------------------------------------------------------------------
      1          6           0        0.000000    0.000000    0.000000
      2          6           0        0.000000    0.000000    3.595472
      3          1           0        1.033709    0.000000   -0.355950
      4          1           0       -0.512871   -0.888318   -0.373351
      5          1           0       -0.515151    0.892268   -0.354775
      6          1           0       -1.033370    0.000000    3.951305
      7          1           0        0.515747   -0.893299    3.950657
      8          1           0        0.515017    0.892035    3.950154
 ---------------------------------------------------------------------
                    Distance matrix (angstroms):
                    1          2          3          4          5
     1  C    0.000000
     2  C    3.595472   0.000000
     3  H    1.093277   4.084395   0.000000
     4  H    1.091575   4.099231   1.783626   0.000000
     5  H    1.089674   4.082398   1.787488   1.780684   0.000000
     6  H    4.084196   1.092918   4.777578   4.445522   4.427981
     7  H    4.083095   1.090933   4.428671   4.444673   4.773651
     8  H    4.082241   1.089390   4.428013   4.787370   4.426473
                    6          7          8
     6  H    0.000000
     7  H    1.788224   0.000000
     8  H    1.786961   1.785335   0.000000
 Symmetry turned off by external request.
 Stoichiometry    C2H6
 Framework group  C1[X(C2H6)]
 Deg. of freedom    18
 Full point group                 C1      NOp   1
 Rotational constants (GHZ):     78.6593480      4.6417797      4.6409126
 Leave Link  202 at Thu May 27 13:50:15 2021, MaxMem=   13107200 cpu:       0.0
 (Enter /programs/64bit/g09/g09-gfortran/bin/l301.exe)
 Standard basis: 6-31+G(d,p) (6D, 7F)
 Ernie: Thresh=  0.10000D-02 Tol=  0.10000D-05 Strict=F.
 Integral buffers will be    131072 words long.
 Raffenetti 2 integral format.
 Two-electron integral symmetry is turned off.
    68 basis functions,   106 primitive gaussians,    68 cartesian basis functions
     9 alpha electrons        9 beta electrons
       nuclear repulsion energy        30.2442637258 Hartrees.
 IExCor=  402 DFT=T Ex+Corr=B3LYP ExCW=0 ScaHFX=  0.200000
 ScaDFX=  0.800000  0.720000  1.000000  0.810000 ScalE2=  1.000000  1.000000
 IRadAn=      0 IRanWt=     -1 IRanGd=            0 ICorTp=0
 NAtoms=    8 NActive=    8 NUniq=    8 SFac= 7.50D-01 NAtFMM=   80 NAOKFM=F Big=F
 Leave Link  301 at Thu May 27 13:50:15 2021, MaxMem=   13107200 cpu:       0.0
 (Enter /programs/64bit/g09/g09-gfortran/bin/l302.exe)
 NPDir=0 NMtPBC=     1 NCelOv=     1 NCel=       1 NClECP=     1 NCelD=      1
         NCelK=      1 NCelE2=     1 NClLst=     1 CellRange=     0.0.
 One-electron integrals computed using PRISM.
 NBasis=    68 RedAO= T  NBF=    68
 NBsUse=    68 1.00D-06 NBFU=    68
 Precomputing XC quadrature grid using
 IXCGrd= 2 IRadAn=           0 IRanWt=          -1 IRanGd=           0 AccXCQ= 1.00D-10.
 NRdTot=     518 NPtTot=       65100 NUsed=       68843 NTot=       68875
 NSgBfM=    68    68    68    68    68 NAtAll=     8     8.
 Leave Link  302 at Thu May 27 13:50:15 2021, MaxMem=   13107200 cpu:       0.1
 (Enter /programs/64bit/g09/g09-gfortran/bin/l303.exe)
 DipDrv:  MaxL=1.
 Leave Link  303 at Thu May 27 13:50:15 2021, MaxMem=   13107200 cpu:       0.0
 (Enter /programs/64bit/g09/g09-gfortran/bin/l401.exe)
 Harris functional with IExCor=  402 diagonalized for initial guess.
 ExpMin= 4.38D-02 ExpMax= 3.05D+03 ExpMxC= 4.57D+02 IAcc=2 IRadAn=         0 AccDes= 0.00D+00
 HarFok:  IExCor=  402 AccDes= 0.00D+00 IRadAn=         0 IDoV= 1
 ScaDFX=  1.000000  1.000000  1.000000  1.000000
 FoFCou: FMM=F IPFlag=           0 FMFlag=      100000 FMFlg1=           0
         NFxFlg=           0 DoJE=T BraDBF=F KetDBF=T FulRan=T
         Omega=  0.000000  0.000000  1.000000  0.000000  0.000000 ICntrl=     500 IOpCl=  0
         NMat0=    1 NMatS0=    1 NMatT0=    0 NMatD0=    1 NMtDS0=    0 NMtDT0=    0
         I1Cent=           4 NGrid=           0.
 Symmetry not used in FoFCou.
 Harris En= -79.6844500125093    
 Leave Link  401 at Thu May 27 13:50:16 2021, MaxMem=   13107200 cpu:       0.9
 (Enter /programs/64bit/g09/g09-gfortran/bin/l502.exe)
 Closed shell SCF:
 Requested convergence on RMS density matrix=1.00D-08 within 128 cycles.
 Requested convergence on MAX density matrix=1.00D-06.
 Requested convergence on             energy=1.00D-06.
 No special actions if energy rises.
 Using DIIS extrapolation, IDIIS=  1040.
 Two-electron integral symmetry not used.
        68758 words used for storage of precomputed grid.
 Keep R1 ints in memory in canonical form, NReq=3743143.
 IEnd=      101608 IEndB=      101608 NGot=    13107200 MDV=    10273866
 LenX=    10273866 LenY=    10268801
 Symmetry not used in FoFDir.
 MinBra= 0 MaxBra= 2 Meth= 1.
 IRaf=       0 NMat=   1 IRICut=       1 DoRegI=T DoRafI=F ISym2E= 0 JSym2E=0.

 Cycle   1  Pass 1  IDiag  1:
 E= -79.5496448585304    
 DIIS: error= 3.19D-02 at cycle   1 NSaved=   1.
 NSaved= 1 IEnMin= 1 EnMin= -79.5496448585304     IErMin= 1 ErrMin= 3.19D-02
 ErrMax= 3.19D-02 EMaxC= 1.00D-01 BMatC= 6.93D-02 BMatP= 6.93D-02
 IDIUse=3 WtCom= 6.81D-01 WtEn= 3.19D-01
 Coeff-Com:  0.100D+01
 Coeff-En:   0.100D+01
 Coeff:      0.100D+01
 Gap=     0.077 Goal=   None    Shift=    0.000
 GapD=    0.077 DampG=0.500 DampE=0.500 DampFc=0.2500 IDamp=-1.
 Damping current iteration by 2.50D-01
 RMSDP=6.90D-03 MaxDP=1.10D-01              OVMax= 2.36D-01

 Cycle   2  Pass 1  IDiag  1:
 E= -79.5812245368743     Delta-E=       -0.031579678344 Rises=F Damp=T
 DIIS: error= 1.53D-02 at cycle   2 NSaved=   2.
 NSaved= 2 IEnMin= 2 EnMin= -79.5812245368743     IErMin= 2 ErrMin= 1.53D-02
 ErrMax= 1.53D-02 EMaxC= 1.00D-01 BMatC= 1.70D-02 BMatP= 6.93D-02
 IDIUse=3 WtCom= 8.47D-01 WtEn= 1.53D-01
 Coeff-Com: -0.848D+00 0.185D+01
 Coeff-En:   0.000D+00 0.100D+01
 Coeff:     -0.718D+00 0.172D+01
 Gap=     0.071 Goal=   None    Shift=    0.000
 RMSDP=2.98D-03 MaxDP=7.84D-02 DE=-3.16D-02 OVMax= 2.43D-01

 Cycle   3  Pass 1  IDiag  1:
 E= -79.6021388741661     Delta-E=       -0.020914337292 Rises=F Damp=F
 DIIS: error= 3.26D-02 at cycle   3 NSaved=   3.
 NSaved= 3 IEnMin= 3 EnMin= -79.6021388741661     IErMin= 2 ErrMin= 1.53D-02
 ErrMax= 3.26D-02 EMaxC= 1.00D-01 BMatC= 1.98D-02 BMatP= 1.70D-02
 IDIUse=2 WtCom= 0.00D+00 WtEn= 1.00D+00
 Coeff-En:   0.000D+00 0.265D+00 0.735D+00
 Coeff:      0.000D+00 0.265D+00 0.735D+00
 Gap=     0.028 Goal=   None    Shift=    0.000
 RMSDP=8.31D-03 MaxDP=2.15D-01 DE=-2.09D-02 OVMax= 6.41D-01

 Cycle   4  Pass 1  IDiag  1:
 E= -79.2979492071865     Delta-E=        0.304189666980 Rises=F Damp=F
 DIIS: error= 5.54D-02 at cycle   4 NSaved=   4.
 NSaved= 4 IEnMin= 3 EnMin= -79.6021388741661     IErMin= 2 ErrMin= 1.53D-02
 ErrMax= 5.54D-02 EMaxC= 1.00D-01 BMatC= 1.67D-01 BMatP= 1.70D-02
 IDIUse=2 WtCom= 0.00D+00 WtEn= 1.00D+00
 Coeff-En:   0.000D+00 0.000D+00 0.801D+00 0.199D+00
 Coeff:      0.000D+00 0.000D+00 0.801D+00 0.199D+00
 Gap=     0.060 Goal=   None    Shift=    0.000
 RMSDP=4.10D-03 MaxDP=9.69D-02 DE= 3.04D-01 OVMax= 3.09D-01

 Cycle   5  Pass 1  IDiag  1:
 E= -79.5708050099554     Delta-E=       -0.272855802769 Rises=F Damp=F
 DIIS: error= 4.39D-02 at cycle   5 NSaved=   5.
 NSaved= 5 IEnMin= 3 EnMin= -79.6021388741661     IErMin= 2 ErrMin= 1.53D-02
 ErrMax= 4.39D-02 EMaxC= 1.00D-01 BMatC= 3.64D-02 BMatP= 1.70D-02
 IDIUse=2 WtCom= 0.00D+00 WtEn= 1.00D+00
 Coeff-En:   0.000D+00 0.000D+00 0.592D+00 0.000D+00 0.408D+00
 Coeff:      0.000D+00 0.000D+00 0.592D+00 0.000D+00 0.408D+00
 Gap=     0.063 Goal=   None    Shift=    0.000
 RMSDP=2.46D-03 MaxDP=6.12D-02 DE=-2.73D-01 OVMax= 1.95D-01

 Cycle   6  Pass 1  IDiag  1:
 E= -79.6347566803952     Delta-E=       -0.063951670440 Rises=F Damp=F
 DIIS: error= 6.40D-03 at cycle   6 NSaved=   6.
 NSaved= 6 IEnMin= 6 EnMin= -79.6347566803952     IErMin= 6 ErrMin= 6.40D-03
 ErrMax= 6.40D-03 EMaxC= 1.00D-01 BMatC= 7.49D-04 BMatP= 1.70D-02
 IDIUse=3 WtCom= 9.36D-01 WtEn= 6.40D-02
 Coeff-Com: -0.609D-02 0.330D-02 0.110D+00 0.451D-02-0.646D-01 0.953D+00
 Coeff-En:   0.000D+00 0.000D+00 0.111D+00 0.000D+00 0.000D+00 0.889D+00
 Coeff:     -0.570D-02 0.309D-02 0.110D+00 0.422D-02-0.605D-01 0.949D+00
 Gap=     0.070 Goal=   None    Shift=    0.000
 RMSDP=3.38D-04 MaxDP=8.63D-03 DE=-6.40D-02 OVMax= 2.61D-02

 Cycle   7  Pass 1  IDiag  1:
 E= -79.6359406005991     Delta-E=       -0.001183920204 Rises=F Damp=F
 DIIS: error= 6.16D-04 at cycle   7 NSaved=   7.
 NSaved= 7 IEnMin= 7 EnMin= -79.6359406005991     IErMin= 7 ErrMin= 6.16D-04
 ErrMax= 6.16D-04 EMaxC= 1.00D-01 BMatC= 5.71D-06 BMatP= 7.49D-04
 IDIUse=3 WtCom= 9.94D-01 WtEn= 6.16D-03
 Coeff-Com: -0.309D-02 0.512D-02 0.179D-01 0.276D-02-0.269D-01 0.169D+00
 Coeff-Com:  0.836D+00
 Coeff-En:   0.000D+00 0.000D+00 0.000D+00 0.000D+00 0.000D+00 0.000D+00
 Coeff-En:   0.100D+01
 Coeff:     -0.307D-02 0.509D-02 0.178D-01 0.274D-02-0.267D-01 0.168D+00
 Coeff:      0.837D+00
 Gap=     0.070 Goal=   None    Shift=    0.000
 RMSDP=3.57D-05 MaxDP=8.13D-04 DE=-1.18D-03 OVMax= 2.78D-03

 Cycle   8  Pass 1  IDiag  1:
 E= -79.6359509279289     Delta-E=       -0.000010327330 Rises=F Damp=F
 DIIS: error= 1.61D-05 at cycle   8 NSaved=   8.
 NSaved= 8 IEnMin= 8 EnMin= -79.6359509279289     IErMin= 8 ErrMin= 1.61D-05
 ErrMax= 1.61D-05 EMaxC= 1.00D-01 BMatC= 1.01D-08 BMatP= 5.71D-06
 IDIUse=1 WtCom= 1.00D+00 WtEn= 0.00D+00
 Coeff-Com:  0.458D-03-0.745D-03 0.679D-03 0.273D-03-0.172D-02 0.139D-03
 Coeff-Com:  0.116D+00 0.885D+00
 Coeff:      0.458D-03-0.745D-03 0.679D-03 0.273D-03-0.172D-02 0.139D-03
 Coeff:      0.116D+00 0.885D+00
 Gap=     0.070 Goal=   None    Shift=    0.000
 RMSDP=4.16D-06 MaxDP=8.36D-05 DE=-1.03D-05 OVMax= 2.89D-04

 Cycle   9  Pass 1  IDiag  1:
 E= -79.6359508845589     Delta-E=        0.000000043370 Rises=F Damp=F
 DIIS: error= 4.59D-05 at cycle   9 NSaved=   9.
 NSaved= 9 IEnMin= 8 EnMin= -79.6359509279289     IErMin= 8 ErrMin= 1.61D-05
 ErrMax= 4.59D-05 EMaxC= 1.00D-01 BMatC= 3.39D-08 BMatP= 1.01D-08
 IDIUse=1 WtCom= 1.00D+00 WtEn= 0.00D+00
 Coeff-Com: -0.955D-04 0.107D-03-0.616D-03-0.722D-04 0.719D-03-0.195D-02
 Coeff-Com:  0.108D-01 0.533D-01 0.938D+00
 Coeff:     -0.955D-04 0.107D-03-0.616D-03-0.722D-04 0.719D-03-0.195D-02
 Coeff:      0.108D-01 0.533D-01 0.938D+00
 Gap=     0.070 Goal=   None    Shift=    0.000
 RMSDP=2.48D-06 MaxDP=5.84D-05 DE= 4.34D-08 OVMax= 1.96D-04

 Cycle  10  Pass 1  IDiag  1:
 E= -79.6359509424303     Delta-E=       -0.000000057871 Rises=F Damp=F
 DIIS: error= 3.05D-06 at cycle  10 NSaved=  10.
 NSaved=10 IEnMin=10 EnMin= -79.6359509424303     IErMin=10 ErrMin= 3.05D-06
 ErrMax= 3.05D-06 EMaxC= 1.00D-01 BMatC= 1.46D-10 BMatP= 1.01D-08
 IDIUse=1 WtCom= 1.00D+00 WtEn= 0.00D+00
 Coeff-Com: -0.233D-04 0.292D-04-0.101D-03-0.137D-04 0.131D-03-0.287D-03
 Coeff-Com:  0.102D-02 0.142D-02 0.982D-01 0.900D+00
 Coeff:     -0.233D-04 0.292D-04-0.101D-03-0.137D-04 0.131D-03-0.287D-03
 Coeff:      0.102D-02 0.142D-02 0.982D-01 0.900D+00
 Gap=     0.070 Goal=   None    Shift=    0.000
 RMSDP=1.69D-07 MaxDP=4.11D-06 DE=-5.79D-08 OVMax= 1.36D-05

 Cycle  11  Pass 1  IDiag  1:
 E= -79.6359509426822     Delta-E=       -0.000000000252 Rises=F Damp=F
 DIIS: error= 5.55D-08 at cycle  11 NSaved=  11.
 NSaved=11 IEnMin=11 EnMin= -79.6359509426822     IErMin=11 ErrMin= 5.55D-08
 ErrMax= 5.55D-08 EMaxC= 1.00D-01 BMatC= 1.23D-13 BMatP= 1.46D-10
 IDIUse=1 WtCom= 1.00D+00 WtEn= 0.00D+00
 Coeff-Com: -0.152D-05 0.194D-05-0.162D-05-0.577D-06 0.622D-05-0.194D-04
 Coeff-Com: -0.131D-03-0.622D-03-0.114D-01 0.185D+00 0.828D+00
 Coeff:     -0.152D-05 0.194D-05-0.162D-05-0.577D-06 0.622D-05-0.194D-04
 Coeff:     -0.131D-03-0.622D-03-0.114D-01 0.185D+00 0.828D+00
 Gap=     0.070 Goal=   None    Shift=    0.000
 RMSDP=5.93D-09 MaxDP=1.14D-07 DE=-2.52D-10 OVMax= 3.16D-07

 SCF Done:  E(RB3LYP) =  -79.6359509427     A.U. after   11 cycles
             Convg  =    0.5927D-08             -V/T =  2.0130
 KE= 7.861503552658D+01 PE=-2.435263724409D+02 EE= 5.503112224581D+01
 Leave Link  502 at Thu May 27 13:50:29 2021, MaxMem=   13107200 cpu:       9.2
 (Enter /programs/64bit/g09/g09-gfortran/bin/l601.exe)
 Copying SCF densities to generalized density rwf, IOpCl= 0 IROHF=0.

 **********************************************************************

            Population analysis using the SCF density.

 **********************************************************************

 Alpha  occ. eigenvalues --  -10.22562 -10.22470  -0.68545  -0.68291  -0.41089
 Alpha  occ. eigenvalues --   -0.41058  -0.40906  -0.40815  -0.21716
 Alpha virt. eigenvalues --   -0.14717   0.01367   0.03107   0.05536   0.05542
 Alpha virt. eigenvalues --    0.07974   0.07982   0.10875   0.12453   0.17782
 Alpha virt. eigenvalues --    0.17845   0.19766   0.19821   0.24655   0.31187
 Alpha virt. eigenvalues --    0.62785   0.62818   0.64581   0.64623   0.64822
 Alpha virt. eigenvalues --    0.73380   0.89030   0.90131   0.90238   0.92292
 Alpha virt. eigenvalues --    0.92353   0.92762   1.01696   1.07857   1.40252
 Alpha virt. eigenvalues --    1.40319   1.40325   1.40409   1.76136   1.77599
 Alpha virt. eigenvalues --    2.02541   2.02725   2.05504   2.05819   2.06504
 Alpha virt. eigenvalues --    2.06872   2.30589   2.30867   2.31407   2.31519
 Alpha virt. eigenvalues --    2.58153   2.61007   2.80224   2.80513   2.80785
 Alpha virt. eigenvalues --    2.81055   3.18301   3.20659   3.39120   3.39506
 Alpha virt. eigenvalues --    3.40363   3.40761   4.25042   4.29783
          Condensed to atoms (all electrons):
              1          2          3          4          5          6
     1  C    5.228321   0.121811   0.379580   0.379147   0.379742  -0.003429
     2  C    0.121811   5.224513  -0.003492  -0.003298  -0.003474   0.379703
     3  H    0.379580  -0.003492   0.532246  -0.033682  -0.033273   0.000005
     4  H    0.379147  -0.003298  -0.033682   0.533309  -0.033803   0.000009
     5  H    0.379742  -0.003474  -0.033273  -0.033803   0.531759   0.000009
     6  H   -0.003429   0.379703   0.000005   0.000009   0.000009   0.531138
     7  H   -0.003418   0.379801   0.000009   0.000009   0.000005  -0.033215
     8  H   -0.003408   0.379826   0.000010   0.000005   0.000009  -0.033295
              7          8
     1  C   -0.003418  -0.003408
     2  C    0.379801   0.379826
     3  H    0.000009   0.000010
     4  H    0.000009   0.000005
     5  H    0.000005   0.000009
     6  H   -0.033215  -0.033295
     7  H    0.530855  -0.033360
     8  H   -0.033360   0.530791
 Mulliken atomic charges:
              1
     1  C   -0.478347
     2  C   -0.475391
     3  H    0.158598
     4  H    0.158305
     5  H    0.159025
     6  H    0.159075
     7  H    0.159313
     8  H    0.159421
 Sum of Mulliken atomic charges =  -0.00000
 Mulliken charges with hydrogens summed into heavy atoms:
              1
     1  C   -0.002418
     2  C    0.002418
 Sum of Mulliken charges with hydrogens summed into heavy atoms =  -0.00000
 Electronic spatial extent (au):  <R**2>=            499.4818
 Charge=             -0.0000 electrons
 Dipole moment (field-independent basis, Debye):
    X=              0.0047    Y=              0.0095    Z=              0.0278  Tot=              0.0297
 Quadrupole moment (field-independent basis, Debye-Ang):
   XX=            -15.5882   YY=            -15.6047   ZZ=            -10.6597
   XY=             -0.0107   XZ=              0.0147   YZ=              0.0212
 Traceless Quadrupole moment (field-independent basis, Debye-Ang):
   XX=             -1.6374   YY=             -1.6538   ZZ=              3.2912
   XY=             -0.0107   XZ=              0.0147   YZ=              0.0212
 Octapole moment (field-independent basis, Debye-Ang**2):
  XXX=             -0.0014  YYY=              0.0291  ZZZ=            -57.6948  XYY=              0.0148
  XXY=              0.0097  XXZ=            -27.9701  XZZ=              0.0102  YZZ=              0.0046
  YYZ=            -27.9816  XYZ=             -0.0067
 Hexadecapole moment (field-independent basis, Debye-Ang**3):
 XXXX=            -33.3349 YYYY=            -33.2855 ZZZZ=           -568.4644 XXXY=             -0.0019
 XXXZ=             -2.9533 YYYX=             -0.0098 YYYZ=              0.0276 ZZZX=              0.1152
 ZZZY=              0.0547 XXYY=            -11.1113 XXZZ=           -110.9076 YYZZ=           -110.9316
 XXYZ=              0.0092 YYXZ=              3.0275 ZZXY=             -0.0043
 N-N= 3.024426372579D+01 E-N=-2.435263720309D+02  KE= 7.861503552658D+01
 No NMR shielding tensors so no spin-rotation constants.
 Leave Link  601 at Thu May 27 13:50:29 2021, MaxMem=   13107200 cpu:       0.1
 (Enter /programs/64bit/g09/g09-gfortran/bin/l701.exe)
 Compute integral first derivatives.
 ... and contract with generalized density number  0.
 Leave Link  701 at Thu May 27 13:50:29 2021, MaxMem=   13107200 cpu:       0.1
 (Enter /programs/64bit/g09/g09-gfortran/bin/l702.exe)
 L702 exits ... SP integral derivatives will be done elsewhere.
 Leave Link  702 at Thu May 27 13:50:29 2021, MaxMem=   13107200 cpu:       0.0
 (Enter /programs/64bit/g09/g09-gfortran/bin/l703.exe)
 Compute integral first derivatives, UseDBF=F ICtDFT=           0.
 Integral derivatives from FoFDir, PRISM(SPDF).
 Calling FoFJK, ICntrl=      2127 FMM=F ISym2X=0 I1Cent= 0 IOpClX= 0 NMat=1 NMatS=1 NMatT=0.
 FoFCou: FMM=F IPFlag=           0 FMFlag=      100000 FMFlg1=         800
         NFxFlg=           0 DoJE=F BraDBF=F KetDBF=F FulRan=T
         Omega=  0.000000  0.000000  1.000000  0.000000  0.000000 ICntrl=    2127 IOpCl=  0
         NMat0=    1 NMatS0=    1 NMatT0=    0 NMatD0=    1 NMtDS0=    0 NMtDT0=    0
         I1Cent=           0 NGrid=           0.
 Symmetry not used in FoFCou.
 Leave Link  703 at Thu May 27 13:50:31 2021, MaxMem=   13107200 cpu:       1.7
 (Enter /programs/64bit/g09/g09-gfortran/bin/l716.exe)
 Dipole        = 1.84633859D-03 3.75460125D-03 1.09187850D-02
 -------------------------------------------------------------------
 Center     Atomic                   Forces (Hartrees/Bohr)
 Number     Number              X              Y              Z
 -------------------------------------------------------------------
      1        6           0.001656951   -0.000941394   -0.025412587
      2        6          -0.001721418   -0.000882124    0.024295546
      3        1           0.003768641    0.000291885    0.016262599
      4        1          -0.002664078   -0.004717896    0.016118117
      5        1          -0.002730376    0.005418344    0.015574208
      6        1          -0.003740568   -0.000026899   -0.015956281
      7        1           0.002452368   -0.004355891   -0.015578578
      8        1           0.002978480    0.005213975   -0.015303022
 -------------------------------------------------------------------
 Cartesian Forces:  Max     0.025412587 RMS     0.010987189
 -----------------------------------------------------------------------------------------------
                       Internal Coordinate Forces (Hartree/Bohr or radian)
  Cent   Atom   N1       Length/X         N2         Alpha/Y        N3         Beta/Z          J
 -----------------------------------------------------------------------------------------------
      1  C 
      2  C        1  -0.022542(     1)
      3  H        1  -0.001731(     2)      2  -0.034303(     8)
      4  H        1  -0.000422(     3)      2  -0.035065(     9)      3  -0.000100(    14)     0
      5  H        1   0.000657(     4)      2  -0.034384(    10)      3   0.000671(    15)     0
      6  H        2  -0.001658(     5)      1  -0.033674(    11)      3   0.000001(    16)     0
      7  H        2  -0.000346(     6)      1  -0.033721(    12)      6  -0.000106(    17)     0
      8  H        2   0.000695(     7)      1  -0.033812(    13)      6   0.000054(    18)     0
 -----------------------------------------------------------------------------------------------
 Internal  Forces:  Max     0.035065335 RMS     0.020437496
 Force constants in Cartesian coordinates: 
                1             2             3             4             5 
      1  0.596194D+00
      2 -0.190342D-02  0.597175D+00
      3  0.284489D-02  0.284476D-02  0.325934D+00
      4 -0.227146D-01 -0.704782D-04 -0.475924D-05  0.599273D+00
      5 -0.704718D-04 -0.228139D-01 -0.702072D-04  0.590616D-03  0.601699D+00
      6  0.273721D-04  0.132996D-04 -0.931676D-02  0.919399D-03  0.448440D-03
      7 -0.307392D+00 -0.799344D-04  0.827517D-01  0.371971D-02  0.000000D+00
      8 -0.298729D-03 -0.783391D-01 -0.149970D-03 -0.353132D-05  0.321653D-03
      9  0.107379D+00 -0.232137D-03 -0.104048D+00  0.108024D-01 -0.151145D-05
     10 -0.135423D+00 -0.984302D-01 -0.434669D-01  0.123012D-02  0.155070D-02
     11 -0.983340D-01 -0.248928D+00 -0.751830D-01  0.154978D-02  0.301915D-02
     12 -0.557310D-01 -0.964951D-01 -0.107719D+00 -0.537723D-02 -0.931369D-02
     13 -0.136723D+00  0.100482D+00 -0.421250D-01  0.117586D-02 -0.148026D-02
     14  0.100604D+00 -0.253162D+00  0.725584D-01 -0.147632D-02  0.287711D-02
     15 -0.544930D-01  0.938825D-01 -0.104850D+00 -0.542039D-02  0.938541D-02
     16  0.372067D-02  0.000000D+00  0.000000D+00 -0.307858D+00 -0.253883D-05
     17 -0.525623D-05  0.319965D-03  0.000000D+00  0.418991D-04 -0.792849D-01
     18  0.108052D-01  0.000000D+00  0.000000D+00  0.107213D+00 -0.739646D-05
     19  0.117299D-02 -0.148179D-02  0.000000D+00 -0.137154D+00  0.998330D-01
     20 -0.147481D-02  0.287194D-02  0.000000D+00  0.997351D-01 -0.252275D+00
     21 -0.541241D-02  0.937462D-02  0.000000D+00 -0.539434D-01  0.933989D-01
     22  0.116545D-02  0.148393D-02  0.000000D+00 -0.137673D+00 -0.100420D+00
     23  0.148222D-02  0.287599D-02  0.000000D+00 -0.100367D+00 -0.253543D+00
     24 -0.542011D-02 -0.938793D-02  0.000000D+00 -0.541895D-01 -0.938399D-01
                6             7             8             9            10 
      6  0.321139D+00
      7  0.000000D+00  0.313848D+00
      8  0.000000D+00  0.961125D-04  0.586765D-01
      9  0.000000D+00 -0.886297D-01  0.279119D-03  0.869783D-01
     10  0.000000D+00 -0.516194D-02 -0.273261D-01 -0.149907D-01  0.122404D+00
     11  0.000000D+00  0.172733D-02  0.946739D-02  0.501632D-02  0.109697D+00
     12  0.000000D+00  0.298109D-02  0.150120D-01  0.865734D-02  0.465785D-01
     13  0.000000D+00 -0.501397D-02  0.275316D-01 -0.145610D-01  0.169505D-01
     14  0.000000D+00 -0.174299D-02  0.987507D-02 -0.506179D-02  0.145096D-01
     15  0.000000D+00  0.289687D-02 -0.151411D-01  0.841278D-02  0.118791D-01
     16  0.830698D-01  0.000000D+00  0.000000D+00  0.000000D+00  0.000000D+00
     17 -0.217569D-04  0.000000D+00  0.602943D-03  0.000000D+00  0.526220D-03
     18 -0.103534D+00  0.000000D+00  0.000000D+00  0.000000D+00  0.000000D+00
     19 -0.418938D-01  0.000000D+00 -0.523113D-03  0.000000D+00 -0.456549D-03
     20  0.724628D-01  0.000000D+00 -0.302020D-03  0.000000D+00 -0.263589D-03
     21 -0.103973D+00  0.000000D+00  0.000000D+00  0.000000D+00  0.000000D+00
     22 -0.421227D-01  0.000000D+00  0.523855D-03  0.000000D+00  0.457195D-03
     23 -0.729028D-01  0.000000D+00 -0.302448D-03  0.000000D+00 -0.263962D-03
     24 -0.104316D+00  0.000000D+00  0.000000D+00  0.000000D+00  0.000000D+00
               11            12            13            14            15 
     11  0.249072D+00
     12  0.806757D-01  0.903754D-01
     13 -0.146401D-01  0.115486D-01  0.123611D+00
     14 -0.126310D-01  0.101212D-01 -0.111894D+00  0.253040D+00
     15 -0.105090D-01  0.868591D-02  0.451374D-01 -0.776178D-01  0.877511D-01
     16  0.000000D+00  0.000000D+00  0.000000D+00  0.000000D+00  0.000000D+00
     17 -0.303813D-03  0.000000D+00 -0.523890D-03 -0.302468D-03  0.000000D+00
     18  0.000000D+00  0.000000D+00  0.000000D+00  0.000000D+00  0.000000D+00
     19  0.263589D-03  0.000000D+00  0.454527D-03  0.262421D-03  0.000000D+00
     20  0.152183D-03  0.000000D+00  0.262422D-03  0.151509D-03  0.000000D+00
     21  0.000000D+00  0.000000D+00  0.000000D+00  0.000000D+00  0.000000D+00
     22 -0.263962D-03  0.000000D+00 -0.455171D-03 -0.262793D-03  0.000000D+00
     23  0.152399D-03  0.000000D+00  0.262793D-03  0.151724D-03  0.000000D+00
     24  0.000000D+00  0.000000D+00  0.000000D+00  0.000000D+00  0.000000D+00
               16            17            18            19            20 
     16  0.314167D+00
     17  0.000000D+00  0.592186D-01
     18 -0.888914D-01  0.000000D+00  0.866277D-01
     19 -0.501130D-02  0.275082D-01 -0.145532D-01  0.123631D+00
     20 -0.173674D-02  0.986787D-02 -0.504364D-02 -0.111192D+00  0.252025D+00
     21  0.290872D-02 -0.151253D-01  0.844717D-02  0.447645D-01 -0.775337D-01
     22 -0.501844D-02 -0.275472D-01 -0.145740D-01  0.173634D-01  0.146699D-01
     23  0.173923D-02  0.988181D-02  0.505087D-02 -0.146699D-01 -0.124913D-01
     24  0.291284D-02  0.151469D-01  0.845913D-02  0.116826D-01  0.101145D-01
               21            22            23            24 
     21  0.870510D-01
     22  0.116826D-01  0.124160D+00
     23 -0.101145D-01  0.111817D+00  0.253275D+00
     24  0.847447D-02  0.450142D-01  0.779664D-01  0.873825D-01
 Force constants in internal coordinates: 
                1             2             3             4             5 
      1  0.931676D-02
      2  0.000000D+00  0.344367D+00
      3  0.000000D+00  0.000000D+00  0.346313D+00
      4  0.000000D+00  0.000000D+00  0.000000D+00  0.348504D+00
      5  0.000000D+00  0.000000D+00  0.000000D+00  0.000000D+00  0.344776D+00
      6  0.000000D+00  0.000000D+00  0.000000D+00  0.000000D+00  0.000000D+00
      7  0.000000D+00  0.000000D+00  0.000000D+00  0.000000D+00  0.000000D+00
      8  0.000000D+00  0.000000D+00  0.000000D+00  0.000000D+00  0.000000D+00
      9  0.000000D+00  0.000000D+00  0.000000D+00  0.000000D+00  0.000000D+00
     10  0.000000D+00  0.000000D+00  0.000000D+00  0.000000D+00  0.000000D+00
     11  0.000000D+00  0.000000D+00  0.000000D+00  0.000000D+00  0.000000D+00
     12  0.000000D+00  0.000000D+00  0.000000D+00  0.000000D+00  0.000000D+00
     13  0.000000D+00  0.000000D+00  0.000000D+00  0.000000D+00  0.000000D+00
     14  0.000000D+00  0.000000D+00  0.000000D+00  0.000000D+00  0.000000D+00
     15  0.000000D+00  0.000000D+00  0.000000D+00  0.000000D+00  0.000000D+00
     16  0.000000D+00  0.000000D+00  0.000000D+00  0.000000D+00  0.000000D+00
     17  0.000000D+00  0.000000D+00  0.000000D+00  0.000000D+00  0.000000D+00
     18  0.000000D+00  0.000000D+00  0.000000D+00  0.000000D+00  0.000000D+00
                6             7             8             9            10 
      6  0.347050D+00
      7  0.000000D+00  0.348833D+00
      8  0.000000D+00  0.000000D+00  0.240987D+00
      9  0.000000D+00  0.000000D+00  0.415254D-01  0.240275D+00
     10  0.000000D+00  0.000000D+00  0.400339D-01  0.415251D-01  0.240988D+00
     11  0.000000D+00  0.000000D+00  0.000000D+00  0.000000D+00  0.000000D+00
     12  0.000000D+00  0.000000D+00  0.000000D+00  0.000000D+00  0.000000D+00
     13  0.000000D+00  0.000000D+00  0.000000D+00  0.000000D+00  0.000000D+00
     14  0.000000D+00  0.000000D+00 -0.656090D-01  0.132947D-05  0.656104D-01
     15  0.000000D+00  0.000000D+00  0.644143D-01 -0.643744D-01 -0.119265D-02
     16  0.000000D+00  0.000000D+00  0.000000D+00  0.000000D+00  0.000000D+00
     17  0.000000D+00  0.000000D+00  0.000000D+00  0.000000D+00  0.000000D+00
     18  0.000000D+00  0.000000D+00  0.000000D+00  0.000000D+00  0.000000D+00
               11            12            13            14            15 
     11  0.238949D+00
     12  0.402308D-01  0.238949D+00
     13  0.402307D-01  0.402305D-01  0.238950D+00
     14  0.000000D+00  0.000000D+00  0.000000D+00  0.221943D+00
     15  0.000000D+00  0.000000D+00  0.000000D+00 -0.107531D+00  0.223902D+00
     16  0.000000D+00  0.000000D+00  0.000000D+00  0.690000D-02  0.690000D-02
     17 -0.644002D-01  0.135773D-05  0.644019D-01  0.230000D-02  0.230000D-02
     18  0.644009D-01 -0.644018D-01  0.000000D+00  0.230000D-02  0.230000D-02
               16            17            18 
     16  0.207000D-01
     17  0.689997D-02  0.225822D+00
     18  0.689965D-02 -0.109461D+00  0.225822D+00
 Leave Link  716 at Thu May 27 13:50:31 2021, MaxMem=   13107200 cpu:       0.0
 (Enter /programs/64bit/g09/g09-gfortran/bin/l103.exe)

 GradGradGradGradGradGradGradGradGradGradGradGradGradGradGradGradGradGrad
 Berny optimization.
 Search for a local minimum.
 Step number   1 out of a maximum of    2
 All quantities printed in internal units (Hartrees-Bohrs-Radians)
 Second derivative matrix not updated -- first step.
 The second derivative matrix:
                          d1        a1        t1        d2        a2
           d1           0.00932
           a1           0.00000   0.24099
           t1           0.00000  -0.06561   0.22194
           d2           0.00000   0.00000  -0.00000   0.34437
           a2           0.00000   0.04153   0.00000   0.00000   0.24028
           t2           0.00000   0.06441  -0.10753   0.00000  -0.06437
           d3          -0.00000  -0.00000  -0.00000   0.00000   0.00000
           d4          -0.00000   0.00000  -0.00000  -0.00000   0.00000
           a3           0.00000   0.04003   0.06561   0.00000   0.04153
           d5           0.00000   0.00000  -0.00000   0.00000   0.00000
           a4           0.00000   0.00000   0.00000   0.00000  -0.00000
           t3          -0.00000   0.00000   0.00690   0.00000  -0.00000
           d6          -0.00000   0.00000   0.00000   0.00000   0.00000
           a5           0.00000   0.00000  -0.00000   0.00000  -0.00000
           t4           0.00000   0.00000   0.00230   0.00000  -0.00000
           d7          -0.00000   0.00000  -0.00000   0.00000   0.00000
           a6           0.00000   0.00000   0.00000   0.00000  -0.00000
           t5          -0.00000   0.00000   0.00230   0.00000   0.00000
                          t2        d3        d4        a3        d5
           t2           0.22390
           d3           0.00000   0.34631
           d4           0.00000  -0.00000   0.34850
           a3          -0.00119  -0.00000  -0.00000   0.24099
           d5          -0.00000  -0.00000  -0.00000  -0.00000   0.34478
           a4           0.00000   0.00000  -0.00000   0.00000   0.00000
           t3           0.00690   0.00000  -0.00000   0.00000  -0.00000
           d6          -0.00000  -0.00000  -0.00000   0.00000  -0.00000
           a5          -0.00000   0.00000   0.00000  -0.00000  -0.00000
           t4           0.00230   0.00000   0.00000   0.00000  -0.00000
           d7          -0.00000  -0.00000  -0.00000   0.00000  -0.00000
           a6           0.00000   0.00000   0.00000  -0.00000   0.00000
           t5           0.00230   0.00000   0.00000   0.00000   0.00000
                          a4        t3        d6        a5        t4
           a4           0.23895
           t3           0.00000   0.02070
           d6          -0.00000   0.00000   0.34705
           a5           0.04023  -0.00000  -0.00000   0.23895
           t4          -0.06440   0.00690   0.00000   0.00000   0.22582
           d7          -0.00000  -0.00000  -0.00000  -0.00000   0.00000
           a6           0.04023   0.00000   0.00000   0.04023   0.06440
           t5           0.06440   0.00690  -0.00000  -0.06440  -0.10946
                          d7        a6        t5
           d7           0.34883
           a6          -0.00000   0.23895
           t5          -0.00000  -0.00000   0.22582
     Eigenvalues --- 1000.000001000.000001000.000001000.000001000.00000
     Eigenvalues --- 1000.000001000.000001000.000001000.000001000.00000
     Eigenvalues --- 1000.000001000.000001000.000001000.000001000.00000
     Eigenvalues --- 1000.000001000.000001000.00000
 Angle between quadratic step and forces=  90.00 degrees.
 Linear search not attempted -- first point.
 Variable       Old X    -DE/DX   Delta X   Delta X   Delta X     New X
                                 (Linear)    (Quad)   (Total)
    d1        6.79446  -0.02254   0.00000   0.00000   0.00000   6.79446
    a1        1.90242  -0.03430   0.00000   0.00000   0.00000   1.90242
    t1        2.09440  -0.00010   0.00000   0.00000   0.00000   2.09440
    d2        2.06599  -0.00173   0.00000   0.00000   0.00000   2.06599
    a2        1.91987  -0.03507   0.00000   0.00000   0.00000   1.91987
    t2       -2.09439   0.00067   0.00000   0.00000   0.00000  -2.09439
    d3        2.06278  -0.00042   0.00000   0.00000   0.00000   2.06278
    d4        2.05919   0.00066   0.00000   0.00000   0.00000   2.05919
    a3        1.90242  -0.03438   0.00000   0.00000   0.00000   1.90242
    d5        2.06532  -0.00166   0.00000   0.00000   0.00000   2.06532
    a4        1.90242  -0.03367   0.00000   0.00000   0.00000   1.90242
    t3        3.14159   0.00000   0.00000   0.00000   0.00000   3.14159
    d6        2.06156  -0.00035   0.00000   0.00000   0.00000   2.06156
    a5        1.90242  -0.03372   0.00000   0.00000   0.00000   1.90242
    t4        2.09440  -0.00011   0.00000   0.00000   0.00000   2.09440
    d7        2.05865   0.00070   0.00000   0.00000   0.00000   2.05865
    a6        1.90242  -0.03381   0.00000   0.00000   0.00000   1.90242
    t5       -2.09440   0.00005   0.00000   0.00000   0.00000  -2.09440
         Item               Value     Threshold  Converged?
 Maximum Force            0.000000     0.000450     YES
 RMS     Force            0.000000     0.000300     YES
 Maximum Displacement     0.000000     0.001800     YES
 RMS     Displacement     0.000000     0.001200     YES
 Predicted change in Energy=-0.000000D+00
 Optimization completed.
    -- Stationary point found.
                       ----------------------------
                       !   Optimized Parameters   !
                       ! (Angstroms and Degrees)  !
 ----------------------                            ----------------------
 !      Name          Value   Derivative information (Atomic Units)     !
 ------------------------------------------------------------------------
 !       d1          3.5955   -DE/DX =   -0.0225                        !
 !       a1        109.0007   -DE/DX =   -0.0343                        !
 !       t1        120.0      -DE/DX =   -0.0001                        !
 !       d2          1.0933   -DE/DX =   -0.0017                        !
 !       a2        110.0006   -DE/DX =   -0.0351                        !
 !       t2       -120.0      -DE/DX =    0.0007                        !
 !       d3          1.0916   -DE/DX =   -0.0004                        !
 !       d4          1.0897   -DE/DX =    0.0007                        !
 !       a3        109.0007   -DE/DX =   -0.0344                        !
 !       d5          1.0929   -DE/DX =   -0.0017                        !
 !       a4        109.0008   -DE/DX =   -0.0337                        !
 !       t3        180.0      -DE/DX =    0.0                           !
 !       d6          1.0909   -DE/DX =   -0.0003                        !
 !       a5        109.0007   -DE/DX =   -0.0337                        !
 !       t4        120.0      -DE/DX =   -0.0001                        !
 !       d7          1.0894   -DE/DX =    0.0007                        !
 !       a6        109.0007   -DE/DX =   -0.0338                        !
 !       t5       -120.0      -DE/DX =    0.0001                        !
 ------------------------------------------------------------------------
 GradGradGradGradGradGradGradGradGradGradGradGradGradGradGradGradGradGrad

 Leave Link  103 at Thu May 27 13:50:31 2021, MaxMem=   13107200 cpu:       0.0
 (Enter /programs/64bit/g09/g09-gfortran/bin/l9999.exe)
 1\1\GINC-MOLMOD\Force\RB3LYP\6-31+G(d,p)\C2H6\OSPITE\27-May-2021\1\\#p
  b3lyp/6-31+g(d,p) force nosym\\c2h6 molecule\\0,1\C\C,1,d1\H,1,d2,2,a
 1\H,1,d3,2,a2,3,t1,0\H,1,d4,2,a3,3,t2,0\H,2,d5,1,a4,3,t3,0\H,2,d6,1,a5
 ,6,t4,0\H,2,d7,1,a6,6,t5,0\\d1=3.59547153\a1=109.00074565\t1=120.00002
 217\d2=1.09327696\a2=110.00056241\t2=-119.99998937\d3=1.09157485\d4=1.
 08967383\a3=109.00067148\d5=1.09291805\a4=109.00075856\t3=179.99999825
 \d6=1.09093318\a5=109.00068212\t4=120.00001868\d7=1.08938968\a6=109.00
 068108\t5=-120.00001449\\Version=EM64L-G09RevA.02\HF=-79.6359509\RMSD=
 5.927e-09\RMSF=1.099e-02\Dipole=0.0018463,0.0037546,0.0109188\Quadrupo
 le=-1.2173483,-1.2295542,2.4469025,-0.0079243,0.010943,0.0157909\PG=C0
 1 [X(C2H6)]\\@


 THE PROGRESS OF RIVERS TO THE SEA IS NOT AS RAPID
 AS THAT OF MAN TO ERROR.
                                              -- VOLTAIRE
 Job cpu time:  0 days  0 hours  0 minutes 12.5 seconds.
 File lengths (MBytes):  RWF=      5 Int=      0 D2E=      0 Chk=      1 Scr=      1
 Normal termination of Gaussian 09 at Thu May 27 13:50:31 2021.
