 Entering Gaussian System, Link 0=g09
 Input=c2h6_018.com
 Output=c2h6_018.log
 Initial command:
 /programs/64bit/g09/g09-gfortran/bin/l1.exe /data/scratch/Gau-17331.inp -scrdir=/data/scratch/
 Entering Link 1 = /programs/64bit/g09/g09-gfortran/bin/l1.exe PID=     17332.
  
 Copyright (c) 1988,1990,1992,1993,1995,1998,2003,2009, Gaussian, Inc.
                  All Rights Reserved.
  
 This is part of the Gaussian(R) 09 program.  It is based on
 the Gaussian(R) 03 system (copyright 2003, Gaussian, Inc.),
 the Gaussian(R) 98 system (copyright 1998, Gaussian, Inc.),
 the Gaussian(R) 94 system (copyright 1995, Gaussian, Inc.),
 the Gaussian 92(TM) system (copyright 1992, Gaussian, Inc.),
 the Gaussian 90(TM) system (copyright 1990, Gaussian, Inc.),
 the Gaussian 88(TM) system (copyright 1988, Gaussian, Inc.),
 the Gaussian 86(TM) system (copyright 1986, Carnegie Mellon
 University), and the Gaussian 82(TM) system (copyright 1983,
 Carnegie Mellon University). Gaussian is a federally registered
 trademark of Gaussian, Inc.
  
 This software contains proprietary and confidential information,
 including trade secrets, belonging to Gaussian, Inc.
  
 This software is provided under written license and may be
 used, copied, transmitted, or stored only in accord with that
 written license.
  
 The following legend is applicable only to US Government
 contracts under FAR:
  
                    RESTRICTED RIGHTS LEGEND
  
 Use, reproduction and disclosure by the US Government is
 subject to restrictions as set forth in subparagraphs (a)
 and (c) of the Commercial Computer Software - Restricted
 Rights clause in FAR 52.227-19.
  
 Gaussian, Inc.
 340 Quinnipiac St., Bldg. 40, Wallingford CT 06492
  
  
 ---------------------------------------------------------------
 Warning -- This program may not be used in any manner that
 competes with the business of Gaussian, Inc. or will provide
 assistance to any competitor of Gaussian, Inc.  The licensee
 of this program is prohibited from giving any competitor of
 Gaussian, Inc. access to this program.  By using this program,
 the user acknowledges that Gaussian, Inc. is engaged in the
 business of creating and licensing software in the field of
 computational chemistry and represents and warrants to the
 licensee that it is not a competitor of Gaussian, Inc. and that
 it will not use this program in any manner prohibited above.
 ---------------------------------------------------------------
  

 Cite this work as:
 Gaussian 09, Revision A.02,
 M. J. Frisch, G. W. Trucks, H. B. Schlegel, G. E. Scuseria, 
 M. A. Robb, J. R. Cheeseman, G. Scalmani, V. Barone, B. Mennucci, 
 G. A. Petersson, H. Nakatsuji, M. Caricato, X. Li, H. P. Hratchian, 
 A. F. Izmaylov, J. Bloino, G. Zheng, J. L. Sonnenberg, M. Hada, 
 M. Ehara, K. Toyota, R. Fukuda, J. Hasegawa, M. Ishida, T. Nakajima, 
 Y. Honda, O. Kitao, H. Nakai, T. Vreven, J. A. Montgomery, Jr., 
 J. E. Peralta, F. Ogliaro, M. Bearpark, J. J. Heyd, E. Brothers, 
 K. N. Kudin, V. N. Staroverov, R. Kobayashi, J. Normand, 
 K. Raghavachari, A. Rendell, J. C. Burant, S. S. Iyengar, J. Tomasi, 
 M. Cossi, N. Rega, J. M. Millam, M. Klene, J. E. Knox, J. B. Cross, 
 V. Bakken, C. Adamo, J. Jaramillo, R. Gomperts, R. E. Stratmann, 
 O. Yazyev, A. J. Austin, R. Cammi, C. Pomelli, J. W. Ochterski, 
 R. L. Martin, K. Morokuma, V. G. Zakrzewski, G. A. Voth, 
 P. Salvador, J. J. Dannenberg, S. Dapprich, A. D. Daniels, 
 O. Farkas, J. B. Foresman, J. V. Ortiz, J. Cioslowski, 
 and D. J. Fox, Gaussian, Inc., Wallingford CT, 2009.
 
 ******************************************
 Gaussian 09:  EM64L-G09RevA.02 11-Jun-2009
                27-May-2021 
 ******************************************
 %chk=c2h6_018.chk
 %mem=100MB
 --------------------------------
 #p b3lyp/6-31+g(d,p) force nosym
 --------------------------------
 1/10=7,30=1,38=1/1,3;
 2/12=2,15=1,17=6,18=5,40=1/2;
 3/5=1,6=6,7=111,11=2,16=1,25=1,30=1,71=1,74=-5/1,2,3;
 4//1;
 5/5=2,38=5/2;
 6/7=2,8=2,9=2,10=2,28=1/1;
 7/29=1,30=1/1,2,3,16;
 1/10=7,30=1/3;
 99//99;
 Leave Link    1 at Thu May 27 13:53:14 2021, MaxMem=   13107200 cpu:       0.0
 (Enter /programs/64bit/g09/g09-gfortran/bin/l101.exe)
 -------------
 c2h6 molecule
 -------------
 Symbolic Z-matrix:
 Charge =  0 Multiplicity = 1
 C1
 C2                   1    d1
 H3                   1    d2       2    a1
 H4                   1    d3       2    a2       3    t1       0
 H5                   1    d4       2    a3       3    t2       0
 H6                   2    d5       1    a4       3    t3       0
 H7                   2    d6       1    a5       6    t4       0
 H8                   2    d7       1    a6       6    t5       0
       Variables:
       Constants:
  d1                    1.50918                  
  a1                  109.02343                  
  t1                  120.00002                  
  d2                    1.06338                  
  a2                  110.02362                  
  t2                 -120.00036                  
  d3                    1.07142                  
  d4                    1.07644                  
  a3                  109.02334                  
  d5                    1.0636                   
  a4                  109.023                    
  t3                  180.                       
  d6                    1.0742                   
  a5                  109.02296                  
  t4                  120.00002                  
  d7                    1.07615                  
  a6                  109.02295                  
  t5                 -120.00001                  
 
 NAtoms=      8 NQM=      8 NQMF=      0 NMic=      0 NMicF=      0 NTot=      8.
                    Isotopes and Nuclear Properties:
 (Nuclear quadrupole moments (NQMom) in fm**2, nuclear magnetic moments (NMagM)
  in nuclear magnetons)

  Atom         1           2           3           4           5           6           7           8
 IAtWgt=          12          12           1           1           1           1           1           1
 AtmWgt=  12.0000000  12.0000000   1.0078250   1.0078250   1.0078250   1.0078250   1.0078250   1.0078250
 NucSpn=           0           0           1           1           1           1           1           1
 AtZEff=   0.0000000   0.0000000   0.0000000   0.0000000   0.0000000   0.0000000   0.0000000   0.0000000
 NQMom=    0.0000000   0.0000000   0.0000000   0.0000000   0.0000000   0.0000000   0.0000000   0.0000000
 NMagM=    0.0000000   0.0000000   2.7928460   2.7928460   2.7928460   2.7928460   2.7928460   2.7928460
 Leave Link  101 at Thu May 27 13:53:14 2021, MaxMem=   13107200 cpu:       0.0
 (Enter /programs/64bit/g09/g09-gfortran/bin/l103.exe)

 GradGradGradGradGradGradGradGradGradGradGradGradGradGradGradGradGradGrad
 Berny optimization.
 Initialization pass.
                       ----------------------------
                       !    Initial Parameters    !
                       ! (Angstroms and Degrees)  !
 ----------------------                            ----------------------
 !      Name          Value   Derivative information (Atomic Units)     !
 ------------------------------------------------------------------------
 !       d1          1.5092   Frozen                                    !
 !       a1        109.0234   Frozen                                    !
 !       t1        120.0      Frozen                                    !
 !       d2          1.0634   Frozen                                    !
 !       a2        110.0236   Frozen                                    !
 !       t2       -120.0004   Frozen                                    !
 !       d3          1.0714   Frozen                                    !
 !       d4          1.0764   Frozen                                    !
 !       a3        109.0233   Frozen                                    !
 !       d5          1.0636   Frozen                                    !
 !       a4        109.023    Frozen                                    !
 !       t3        180.0      Frozen                                    !
 !       d6          1.0742   Frozen                                    !
 !       a5        109.023    Frozen                                    !
 !       t4        120.0      Frozen                                    !
 !       d7          1.0762   Frozen                                    !
 !       a6        109.023    Frozen                                    !
 !       t5       -120.0      Frozen                                    !
 ------------------------------------------------------------------------
 Trust Radius=3.00D-01 FncErr=1.00D-07 GrdErr=1.00D-07
 Number of steps in this run=   2 maximum allowed number of steps=   2.
 GradGradGradGradGradGradGradGradGradGradGradGradGradGradGradGradGradGrad

 Leave Link  103 at Thu May 27 13:53:14 2021, MaxMem=   13107200 cpu:       0.0
 (Enter /programs/64bit/g09/g09-gfortran/bin/l202.exe)
                          Input orientation:                          
 ---------------------------------------------------------------------
 Center     Atomic      Atomic             Coordinates (Angstroms)
 Number     Number       Type             X           Y           Z
 ---------------------------------------------------------------------
      1          6           0        0.000000    0.000000    0.000000
      2          6           0        0.000000    0.000000    1.509178
      3          1           0        1.005307    0.000000   -0.346615
      4          1           0       -0.503325   -0.871784   -0.366861
      5          1           0       -0.508831    0.881309   -0.350869
      6          1           0       -1.005519    0.000000    1.855858
      7          1           0        0.507768   -0.879480    1.859310
      8          1           0        0.508690    0.881077    1.859946
 ---------------------------------------------------------------------
                    Distance matrix (angstroms):
                    1          2          3          4          5
     1  C    0.000000
     2  C    1.509178   0.000000
     3  H    1.063383   2.110595   0.000000
     4  H    1.071416   2.129053   1.742524   0.000000
     5  H    1.076440   2.120234   1.751952   1.753175   0.000000
     6  H    2.110752   1.063605   2.982332   2.439812   2.427560
     7  H    2.118572   1.074200   2.426342   2.445037   3.003122
     8  H    2.120015   1.076150   2.427310   3.009214   2.433733
                    6          7          8
     6  H    0.000000
     7  H    1.750295   0.000000
     8  H    1.751897   1.760557   0.000000
 Symmetry turned off by external request.
 Stoichiometry    C2H6
 Framework group  C1[X(C2H6)]
 Deg. of freedom    18
 Full point group                 C1      NOp   1
 Rotational constants (GHZ):     81.7106068     20.9325176     20.8981168
 Leave Link  202 at Thu May 27 13:53:14 2021, MaxMem=   13107200 cpu:       0.0
 (Enter /programs/64bit/g09/g09-gfortran/bin/l301.exe)
 Standard basis: 6-31+G(d,p) (6D, 7F)
 Ernie: Thresh=  0.10000D-02 Tol=  0.10000D-05 Strict=F.
 Integral buffers will be    131072 words long.
 Raffenetti 2 integral format.
 Two-electron integral symmetry is turned off.
    68 basis functions,   106 primitive gaussians,    68 cartesian basis functions
     9 alpha electrons        9 beta electrons
       nuclear repulsion energy        43.0538008212 Hartrees.
 IExCor=  402 DFT=T Ex+Corr=B3LYP ExCW=0 ScaHFX=  0.200000
 ScaDFX=  0.800000  0.720000  1.000000  0.810000 ScalE2=  1.000000  1.000000
 IRadAn=      0 IRanWt=     -1 IRanGd=            0 ICorTp=0
 NAtoms=    8 NActive=    8 NUniq=    8 SFac= 7.50D-01 NAtFMM=   80 NAOKFM=F Big=F
 Leave Link  301 at Thu May 27 13:53:14 2021, MaxMem=   13107200 cpu:       0.0
 (Enter /programs/64bit/g09/g09-gfortran/bin/l302.exe)
 NPDir=0 NMtPBC=     1 NCelOv=     1 NCel=       1 NClECP=     1 NCelD=      1
         NCelK=      1 NCelE2=     1 NClLst=     1 CellRange=     0.0.
 One-electron integrals computed using PRISM.
 NBasis=    68 RedAO= T  NBF=    68
 NBsUse=    68 1.00D-06 NBFU=    68
 Precomputing XC quadrature grid using
 IXCGrd= 2 IRadAn=           0 IRanWt=          -1 IRanGd=           0 AccXCQ= 1.00D-10.
 NRdTot=     510 NPtTot=       65100 NUsed=       68787 NTot=       68819
 NSgBfM=    68    68    68    68    68 NAtAll=     8     8.
 Leave Link  302 at Thu May 27 13:53:14 2021, MaxMem=   13107200 cpu:       0.1
 (Enter /programs/64bit/g09/g09-gfortran/bin/l303.exe)
 DipDrv:  MaxL=1.
 Leave Link  303 at Thu May 27 13:53:14 2021, MaxMem=   13107200 cpu:       0.0
 (Enter /programs/64bit/g09/g09-gfortran/bin/l401.exe)
 Harris functional with IExCor=  402 diagonalized for initial guess.
 ExpMin= 4.38D-02 ExpMax= 3.05D+03 ExpMxC= 4.57D+02 IAcc=2 IRadAn=         0 AccDes= 0.00D+00
 HarFok:  IExCor=  402 AccDes= 0.00D+00 IRadAn=         0 IDoV= 1
 ScaDFX=  1.000000  1.000000  1.000000  1.000000
 FoFCou: FMM=F IPFlag=           0 FMFlag=      100000 FMFlg1=           0
         NFxFlg=           0 DoJE=T BraDBF=F KetDBF=T FulRan=T
         Omega=  0.000000  0.000000  1.000000  0.000000  0.000000 ICntrl=     500 IOpCl=  0
         NMat0=    1 NMatS0=    1 NMatT0=    0 NMatD0=    1 NMtDS0=    0 NMtDT0=    0
         I1Cent=           4 NGrid=           0.
 Symmetry not used in FoFCou.
 Harris En= -79.9091216326022    
 Leave Link  401 at Thu May 27 13:53:15 2021, MaxMem=   13107200 cpu:       0.6
 (Enter /programs/64bit/g09/g09-gfortran/bin/l502.exe)
 Closed shell SCF:
 Requested convergence on RMS density matrix=1.00D-08 within 128 cycles.
 Requested convergence on MAX density matrix=1.00D-06.
 Requested convergence on             energy=1.00D-06.
 No special actions if energy rises.
 Using DIIS extrapolation, IDIIS=  1040.
 Two-electron integral symmetry not used.
        68702 words used for storage of precomputed grid.
 Keep R1 ints in memory in canonical form, NReq=3743087.
 IEnd=      101552 IEndB=      101552 NGot=    13107200 MDV=    10273922
 LenX=    10273922 LenY=    10268857
 Symmetry not used in FoFDir.
 MinBra= 0 MaxBra= 2 Meth= 1.
 IRaf=       0 NMat=   1 IRICut=       1 DoRegI=T DoRafI=F ISym2E= 0 JSym2E=0.

 Cycle   1  Pass 1  IDiag  1:
 E= -79.6914034555884    
 DIIS: error= 4.26D-02 at cycle   1 NSaved=   1.
 NSaved= 1 IEnMin= 1 EnMin= -79.6914034555884     IErMin= 1 ErrMin= 4.26D-02
 ErrMax= 4.26D-02 EMaxC= 1.00D-01 BMatC= 1.30D-01 BMatP= 1.30D-01
 IDIUse=3 WtCom= 5.74D-01 WtEn= 4.26D-01
 Coeff-Com:  0.100D+01
 Coeff-En:   0.100D+01
 Coeff:      0.100D+01
 Gap=     0.276 Goal=   None    Shift=    0.000
 GapD=    0.276 DampG=1.000 DampE=0.500 DampFc=0.5000 IDamp=-1.
 Damping current iteration by 5.00D-01
 RMSDP=1.01D-02 MaxDP=1.48D-01              OVMax= 2.13D-01

 Cycle   2  Pass 1  IDiag  1:
 E= -79.7527940551168     Delta-E=       -0.061390599528 Rises=F Damp=T
 DIIS: error= 1.17D-02 at cycle   2 NSaved=   2.
 NSaved= 2 IEnMin= 2 EnMin= -79.7527940551168     IErMin= 2 ErrMin= 1.17D-02
 ErrMax= 1.17D-02 EMaxC= 1.00D-01 BMatC= 4.50D-03 BMatP= 1.30D-01
 IDIUse=3 WtCom= 8.83D-01 WtEn= 1.17D-01
 Coeff-Com:  0.100D+00 0.900D+00
 Coeff-En:   0.175D+00 0.825D+00
 Coeff:      0.109D+00 0.891D+00
 Gap=     0.377 Goal=   None    Shift=    0.000
 RMSDP=1.39D-03 MaxDP=1.01D-02 DE=-6.14D-02 OVMax= 1.33D-01

 Cycle   3  Pass 1  IDiag  1:
 E= -79.8372194442071     Delta-E=       -0.084425389090 Rises=F Damp=F
 DIIS: error= 2.42D-03 at cycle   3 NSaved=   3.
 NSaved= 3 IEnMin= 3 EnMin= -79.8372194442071     IErMin= 3 ErrMin= 2.42D-03
 ErrMax= 2.42D-03 EMaxC= 1.00D-01 BMatC= 1.74D-04 BMatP= 4.50D-03
 IDIUse=3 WtCom= 9.76D-01 WtEn= 2.42D-02
 Coeff-Com:  0.507D-02 0.114D+00 0.881D+00
 Coeff-En:   0.000D+00 0.000D+00 0.100D+01
 Coeff:      0.495D-02 0.111D+00 0.884D+00
 Gap=     0.365 Goal=   None    Shift=    0.000
 RMSDP=2.09D-04 MaxDP=2.22D-03 DE=-8.44D-02 OVMax= 4.75D-03

 Cycle   4  Pass 1  IDiag  1:
 E= -79.8373683135761     Delta-E=       -0.000148869369 Rises=F Damp=F
 DIIS: error= 6.82D-04 at cycle   4 NSaved=   4.
 NSaved= 4 IEnMin= 4 EnMin= -79.8373683135761     IErMin= 4 ErrMin= 6.82D-04
 ErrMax= 6.82D-04 EMaxC= 1.00D-01 BMatC= 1.06D-05 BMatP= 1.74D-04
 IDIUse=3 WtCom= 9.93D-01 WtEn= 6.82D-03
 Coeff-Com: -0.117D-02-0.553D-02 0.189D+00 0.817D+00
 Coeff-En:   0.000D+00 0.000D+00 0.000D+00 0.100D+01
 Coeff:     -0.117D-02-0.549D-02 0.188D+00 0.819D+00
 Gap=     0.365 Goal=   None    Shift=    0.000
 RMSDP=4.50D-05 MaxDP=4.64D-04 DE=-1.49D-04 OVMax= 1.23D-03

 Cycle   5  Pass 1  IDiag  1:
 E= -79.8373782952116     Delta-E=       -0.000009981636 Rises=F Damp=F
 DIIS: error= 2.75D-05 at cycle   5 NSaved=   5.
 NSaved= 5 IEnMin= 5 EnMin= -79.8373782952116     IErMin= 5 ErrMin= 2.75D-05
 ErrMax= 2.75D-05 EMaxC= 1.00D-01 BMatC= 2.77D-08 BMatP= 1.06D-05
 IDIUse=1 WtCom= 1.00D+00 WtEn= 0.00D+00
 Coeff-Com:  0.421D-03-0.433D-03-0.564D-02-0.933D-02 0.101D+01
 Coeff:      0.421D-03-0.433D-03-0.564D-02-0.933D-02 0.101D+01
 Gap=     0.365 Goal=   None    Shift=    0.000
 RMSDP=2.58D-06 MaxDP=4.25D-05 DE=-9.98D-06 OVMax= 9.06D-05

 Cycle   6  Pass 1  IDiag  1:
 E= -79.8373783280521     Delta-E=       -0.000000032840 Rises=F Damp=F
 DIIS: error= 3.35D-06 at cycle   6 NSaved=   6.
 NSaved= 6 IEnMin= 6 EnMin= -79.8373783280521     IErMin= 6 ErrMin= 3.35D-06
 ErrMax= 3.35D-06 EMaxC= 1.00D-01 BMatC= 3.90D-10 BMatP= 2.77D-08
 IDIUse=1 WtCom= 1.00D+00 WtEn= 0.00D+00
 Coeff-Com:  0.708D-04-0.746D-04-0.187D-02-0.487D-02 0.186D+00 0.820D+00
 Coeff:      0.708D-04-0.746D-04-0.187D-02-0.487D-02 0.186D+00 0.820D+00
 Gap=     0.365 Goal=   None    Shift=    0.000
 RMSDP=4.07D-07 MaxDP=7.94D-06 DE=-3.28D-08 OVMax= 1.06D-05

 Cycle   7  Pass 1  IDiag  1:
 E= -79.8373783282558     Delta-E=       -0.000000000204 Rises=F Damp=F
 DIIS: error= 2.62D-06 at cycle   7 NSaved=   7.
 NSaved= 7 IEnMin= 7 EnMin= -79.8373783282558     IErMin= 7 ErrMin= 2.62D-06
 ErrMax= 2.62D-06 EMaxC= 1.00D-01 BMatC= 2.08D-10 BMatP= 3.90D-10
 IDIUse=1 WtCom= 1.00D+00 WtEn= 0.00D+00
 Coeff-Com: -0.611D-05-0.642D-06-0.374D-03-0.137D-02-0.149D-02 0.431D+00
 Coeff-Com:  0.573D+00
 Coeff:     -0.611D-05-0.642D-06-0.374D-03-0.137D-02-0.149D-02 0.431D+00
 Coeff:      0.573D+00
 Gap=     0.365 Goal=   None    Shift=    0.000
 RMSDP=1.66D-07 MaxDP=3.37D-06 DE=-2.04D-10 OVMax= 4.66D-06

 Cycle   8  Pass 1  IDiag  1:
 E= -79.8373783284550     Delta-E=       -0.000000000199 Rises=F Damp=F
 DIIS: error= 1.13D-07 at cycle   8 NSaved=   8.
 NSaved= 8 IEnMin= 8 EnMin= -79.8373783284550     IErMin= 8 ErrMin= 1.13D-07
 ErrMax= 1.13D-07 EMaxC= 1.00D-01 BMatC= 8.19D-13 BMatP= 2.08D-10
 IDIUse=1 WtCom= 1.00D+00 WtEn= 0.00D+00
 Coeff-Com: -0.293D-05 0.984D-06-0.822D-04-0.353D-03-0.348D-02 0.120D+00
 Coeff-Com:  0.175D+00 0.709D+00
 Coeff:     -0.293D-05 0.984D-06-0.822D-04-0.353D-03-0.348D-02 0.120D+00
 Coeff:      0.175D+00 0.709D+00
 Gap=     0.365 Goal=   None    Shift=    0.000
 RMSDP=1.81D-08 MaxDP=2.08D-07 DE=-1.99D-10 OVMax= 3.15D-07

 Cycle   9  Pass 1  IDiag  1:
 E= -79.8373783284556     Delta-E=       -0.000000000001 Rises=F Damp=F
 DIIS: error= 1.66D-08 at cycle   9 NSaved=   9.
 NSaved= 9 IEnMin= 9 EnMin= -79.8373783284556     IErMin= 9 ErrMin= 1.66D-08
 ErrMax= 1.66D-08 EMaxC= 1.00D-01 BMatC= 1.61D-14 BMatP= 8.19D-13
 IDIUse=1 WtCom= 1.00D+00 WtEn= 0.00D+00
 Coeff-Com: -0.161D-06 0.302D-06 0.644D-05 0.310D-05-0.641D-03-0.190D-02
 Coeff-Com: -0.746D-04 0.110D+00 0.893D+00
 Coeff:     -0.161D-06 0.302D-06 0.644D-05 0.310D-05-0.641D-03-0.190D-02
 Coeff:     -0.746D-04 0.110D+00 0.893D+00
 Gap=     0.365 Goal=   None    Shift=    0.000
 RMSDP=2.59D-09 MaxDP=2.56D-08 DE=-5.97D-13 OVMax= 5.54D-08

 SCF Done:  E(RB3LYP) =  -79.8373783285     A.U. after    9 cycles
             Convg  =    0.2595D-08             -V/T =  2.0077
 KE= 7.922527318478D+01 PE=-2.700329584900D+02 EE= 6.791650615562D+01
 Leave Link  502 at Thu May 27 13:53:20 2021, MaxMem=   13107200 cpu:       4.8
 (Enter /programs/64bit/g09/g09-gfortran/bin/l601.exe)
 Copying SCF densities to generalized density rwf, IOpCl= 0 IROHF=0.

 **********************************************************************

            Population analysis using the SCF density.

 **********************************************************************

 Alpha  occ. eigenvalues --  -10.16669 -10.16615  -0.76390  -0.61693  -0.44692
 Alpha  occ. eigenvalues --   -0.44494  -0.36110  -0.34869  -0.34695
 Alpha virt. eigenvalues --    0.01848   0.03342   0.05267   0.05280   0.08031
 Alpha virt. eigenvalues --    0.09045   0.09054   0.14522   0.19423   0.19571
 Alpha virt. eigenvalues --    0.21356   0.21710   0.25996   0.30034   0.34093
 Alpha virt. eigenvalues --    0.60933   0.64101   0.64319   0.66278   0.66444
 Alpha virt. eigenvalues --    0.70948   0.92427   0.92772   0.97944   0.98233
 Alpha virt. eigenvalues --    1.01424   1.12261   1.13081   1.31682   1.31925
 Alpha virt. eigenvalues --    1.47536   1.70028   1.70291   1.94375   2.05060
 Alpha virt. eigenvalues --    2.05292   2.10754   2.11869   2.12627   2.13815
 Alpha virt. eigenvalues --    2.31353   2.32049   2.38396   2.52414   2.52834
 Alpha virt. eigenvalues --    2.70138   2.76071   2.85251   2.86175   2.97360
 Alpha virt. eigenvalues --    2.97994   3.29403   3.34100   3.40241   3.41757
 Alpha virt. eigenvalues --    3.57475   3.59095   4.34806   4.59995
          Condensed to atoms (all electrons):
              1          2          3          4          5          6
     1  C    5.089975   0.261203   0.411454   0.410230   0.410837  -0.049546
     2  C    0.261203   5.085068  -0.049380  -0.047311  -0.049174   0.411686
     3  H    0.411454  -0.049380   0.555103  -0.029564  -0.028711   0.005741
     4  H    0.410230  -0.047311  -0.029564   0.555863  -0.029213  -0.005200
     5  H    0.410837  -0.049174  -0.028711  -0.029213   0.557302  -0.005309
     6  H   -0.049546   0.411686   0.005741  -0.005200  -0.005309   0.554376
     7  H   -0.049177   0.410968  -0.005312  -0.005165   0.005584  -0.028931
     8  H   -0.050275   0.412400  -0.005364   0.005500  -0.005325  -0.029020
              7          8
     1  C   -0.049177  -0.050275
     2  C    0.410968   0.412400
     3  H   -0.005312  -0.005364
     4  H   -0.005165   0.005500
     5  H    0.005584  -0.005325
     6  H   -0.028931  -0.029020
     7  H    0.556278  -0.028756
     8  H   -0.028756   0.556294
 Mulliken atomic charges:
              1
     1  C   -0.434700
     2  C   -0.435460
     3  H    0.146032
     4  H    0.144861
     5  H    0.144008
     6  H    0.146203
     7  H    0.144512
     8  H    0.144545
 Sum of Mulliken atomic charges =  -0.00000
 Mulliken charges with hydrogens summed into heavy atoms:
              1
     1  C    0.000201
     2  C   -0.000201
 Sum of Mulliken charges with hydrogens summed into heavy atoms =  -0.00000
 Electronic spatial extent (au):  <R**2>=            143.0685
 Charge=             -0.0000 electrons
 Dipole moment (field-independent basis, Debye):
    X=             -0.0006    Y=             -0.0042    Z=             -0.0040  Tot=              0.0059
 Quadrupole moment (field-independent basis, Debye-Ang):
   XX=            -14.8091   YY=            -14.8142   ZZ=            -16.1129
   XY=             -0.0072   XZ=             -0.0037   YZ=              0.0215
 Traceless Quadrupole moment (field-independent basis, Debye-Ang):
   XX=              0.4363   YY=              0.4312   ZZ=             -0.8675
   XY=             -0.0072   XZ=             -0.0037   YZ=              0.0215
 Octapole moment (field-independent basis, Debye-Ang**2):
  XXX=             -0.0201  YYY=             -0.0395  ZZZ=            -36.4825  XYY=              0.0067
  XXY=             -0.0131  XXZ=            -11.1593  XZZ=             -0.0293  YZZ=             -0.0182
  YYZ=            -11.1583  XYZ=             -0.0005
 Hexadecapole moment (field-independent basis, Debye-Ang**3):
 XXXX=            -30.0388 YYYY=            -30.3329 ZZZZ=           -149.6553 XXXY=              0.0143
 XXXZ=             -1.3099 YYYX=              0.0076 YYYZ=             -0.0044 ZZZX=             -0.2001
 ZZZY=              0.0116 XXYY=            -10.0498 XXZZ=            -28.2661 YYZZ=            -28.2849
 XXYZ=             -0.0015 YYXZ=              1.1113 ZZXY=              0.0197
 N-N= 4.305380082117D+01 E-N=-2.700329588411D+02  KE= 7.922527318478D+01
 No NMR shielding tensors so no spin-rotation constants.
 Leave Link  601 at Thu May 27 13:53:20 2021, MaxMem=   13107200 cpu:       0.0
 (Enter /programs/64bit/g09/g09-gfortran/bin/l701.exe)
 Compute integral first derivatives.
 ... and contract with generalized density number  0.
 Leave Link  701 at Thu May 27 13:53:20 2021, MaxMem=   13107200 cpu:       0.0
 (Enter /programs/64bit/g09/g09-gfortran/bin/l702.exe)
 L702 exits ... SP integral derivatives will be done elsewhere.
 Leave Link  702 at Thu May 27 13:53:20 2021, MaxMem=   13107200 cpu:       0.0
 (Enter /programs/64bit/g09/g09-gfortran/bin/l703.exe)
 Compute integral first derivatives, UseDBF=F ICtDFT=           0.
 Integral derivatives from FoFDir, PRISM(SPDF).
 Calling FoFJK, ICntrl=      2127 FMM=F ISym2X=0 I1Cent= 0 IOpClX= 0 NMat=1 NMatS=1 NMatT=0.
 FoFCou: FMM=F IPFlag=           0 FMFlag=      100000 FMFlg1=         800
         NFxFlg=           0 DoJE=F BraDBF=F KetDBF=F FulRan=T
         Omega=  0.000000  0.000000  1.000000  0.000000  0.000000 ICntrl=    2127 IOpCl=  0
         NMat0=    1 NMatS0=    1 NMatT0=    0 NMatD0=    1 NMtDS0=    0 NMtDT0=    0
         I1Cent=           0 NGrid=           0.
 Symmetry not used in FoFCou.
 Leave Link  703 at Thu May 27 13:53:22 2021, MaxMem=   13107200 cpu:       1.1
 (Enter /programs/64bit/g09/g09-gfortran/bin/l716.exe)
 Dipole        =-2.43882099D-04-1.65652055D-03-1.58211136D-03
 -------------------------------------------------------------------
 Center     Atomic                   Forces (Hartrees/Bohr)
 Number     Number              X              Y              Z
 -------------------------------------------------------------------
      1        6          -0.006338885    0.003380973    0.009736219
      2        6           0.006752870    0.000109648   -0.010896209
      3        1           0.019125127    0.000580224   -0.013102199
      4        1          -0.007118190   -0.011937036   -0.009642825
      5        1          -0.004759848    0.009000154   -0.009827022
      6        1          -0.018731332    0.000017295    0.013300560
      7        1           0.005877440   -0.009827451    0.010601155
      8        1           0.005192820    0.008676193    0.009830322
 -------------------------------------------------------------------
 Cartesian Forces:  Max     0.019125127 RMS     0.009800190
 -----------------------------------------------------------------------------------------------
                       Internal Coordinate Forces (Hartree/Bohr or radian)
  Cent   Atom   N1       Length/X         N2         Alpha/Y        N3         Beta/Z          J
 -----------------------------------------------------------------------------------------------
      1  C 
      2  C        1   0.022836(     1)
      3  H        1   0.022351(     2)      2   0.012364(     8)
      4  H        1   0.016359(     3)      2   0.008709(     9)      3   0.000373(    14)     0
      5  H        1   0.012822(     4)      2   0.012152(    10)      3   0.000727(    15)     0
      6  H        2   0.022044(     5)      1   0.013002(    11)      3  -0.000000(    16)     0
      7  H        2   0.014280(     6)      1   0.012769(    12)      6   0.000338(    17)     0
      8  H        2   0.012762(     7)      1   0.012198(    13)      6  -0.000306(    18)     0
 -----------------------------------------------------------------------------------------------
 Internal  Forces:  Max     0.022835827 RMS     0.013257929
 Force constants in Cartesian coordinates: 
                1             2             3             4             5 
      1  0.715652D+00
      2  0.941817D-03  0.703955D+00
      3 -0.160905D-02  0.523269D-02  0.648057D+00
      4 -0.924173D-01 -0.146937D-03 -0.333970D-03  0.716585D+00
      5 -0.146639D-03 -0.924138D-01 -0.215307D-04 -0.822080D-03  0.705230D+00
      6 -0.285214D-03 -0.411980D-04 -0.314332D+00 -0.410789D-02 -0.584130D-03
      7 -0.345180D+00 -0.940918D-04  0.927566D-01  0.913005D-02 -0.169688D-05
      8 -0.127232D-03 -0.870911D-01 -0.258288D-03 -0.343645D-05  0.153950D-02
      9  0.103285D+00 -0.272900D-03 -0.111763D+00  0.264804D-01 -0.492155D-05
     10 -0.147635D+00 -0.106381D+00 -0.466877D-01  0.360861D-02  0.339857D-02
     11 -0.106750D+00 -0.271058D+00 -0.812641D-01  0.341355D-02  0.755865D-02
     12 -0.521163D-01 -0.903975D-01 -0.113352D+00 -0.130627D-01 -0.226247D-01
     13 -0.146357D+00  0.105686D+00 -0.441259D-01  0.341156D-02 -0.322610D-02
     14  0.106089D+00 -0.269245D+00  0.763112D-01 -0.323924D-02  0.715532D-02
     15 -0.495592D-01  0.854377D-01 -0.108610D+00 -0.130837D-01  0.226511D-01
     16  0.912712D-02  0.000000D+00  0.000000D+00 -0.345040D+00  0.340742D-05
     17 -0.369942D-04  0.154522D-02  0.000000D+00 -0.316731D-04 -0.879794D-01
     18  0.264726D-01  0.000000D+00  0.000000D+00  0.102857D+00  0.985713D-05
     19  0.343940D-02 -0.325002D-02  0.000000D+00 -0.148014D+00  0.106400D+00
     20 -0.323177D-02  0.716039D-02  0.000000D+00  0.106736D+00 -0.271406D+00
     21 -0.131056D-01  0.226991D-01  0.000000D+00 -0.495346D-01  0.859232D-01
     22  0.336999D-02  0.324401D-02  0.000000D+00 -0.147264D+00 -0.105606D+00
     23  0.326235D-02  0.714744D-02  0.000000D+00 -0.105906D+00 -0.269685D+00
     24 -0.130818D-01 -0.226578D-01  0.000000D+00 -0.492144D-01 -0.853489D-01
                6             7             8             9            10 
      6  0.641890D+00
      7  0.000000D+00  0.346683D+00
      8  0.000000D+00  0.101147D-03  0.653813D-01
      9  0.000000D+00 -0.989253D-01  0.293361D-03  0.938721D-01
     10  0.000000D+00 -0.541089D-02 -0.285852D-01 -0.156935D-01  0.131988D+00
     11  0.000000D+00  0.180329D-02  0.989487D-02  0.523019D-02  0.116608D+00
     12  0.000000D+00  0.313841D-02  0.157047D-01  0.910250D-02  0.501564D-01
     13  0.000000D+00 -0.522215D-02  0.286174D-01 -0.151461D-01  0.174513D-01
     14  0.000000D+00 -0.180865D-02  0.102562D-01 -0.524573D-02  0.149426D-01
     15  0.000000D+00  0.303023D-02 -0.157398D-01  0.878876D-02  0.122249D-01
     16  0.929030D-01  0.000000D+00  0.000000D+00  0.000000D+00  0.000000D+00
     17  0.290136D-04  0.000000D+00  0.178550D-02  0.000000D+00  0.154423D-02
     18 -0.111044D+00  0.000000D+00  0.000000D+00  0.000000D+00  0.000000D+00
     19 -0.444103D-01  0.000000D+00 -0.153104D-02  0.000000D+00 -0.132415D-02
     20  0.772941D-01  0.000000D+00 -0.883945D-03  0.000000D+00 -0.764497D-03
     21 -0.108487D+00  0.000000D+00  0.000000D+00  0.000000D+00  0.000000D+00
     22 -0.440995D-01  0.000000D+00  0.152826D-02  0.000000D+00  0.132175D-02
     23 -0.766978D-01  0.000000D+00 -0.882343D-03  0.000000D+00 -0.763112D-03
     24 -0.108027D+00  0.000000D+00  0.000000D+00  0.000000D+00  0.000000D+00
               11            12            13            14            15 
     11  0.266635D+00
     12  0.868760D-01  0.952575D-01
     13 -0.150766D-01  0.118842D-01  0.130714D+00
     14 -0.130211D-01  0.104414D-01 -0.115985D+00  0.264864D+00
     15 -0.108421D-01  0.899220D-02  0.473878D-01 -0.815069D-01  0.908288D-01
     16  0.000000D+00  0.000000D+00  0.000000D+00  0.000000D+00  0.000000D+00
     17 -0.891560D-03  0.000000D+00 -0.152753D-02 -0.881931D-03  0.000000D+00
     18  0.000000D+00  0.000000D+00  0.000000D+00  0.000000D+00  0.000000D+00
     19  0.764498D-03  0.000000D+00  0.130983D-02  0.756241D-03  0.000000D+00
     20  0.441383D-03  0.000000D+00  0.756230D-03  0.436616D-03  0.000000D+00
     21  0.000000D+00  0.000000D+00  0.000000D+00  0.000000D+00  0.000000D+00
     22 -0.763112D-03  0.000000D+00 -0.130745D-02 -0.754870D-03  0.000000D+00
     23  0.440583D-03  0.000000D+00  0.754859D-03  0.435825D-03  0.000000D+00
     24  0.000000D+00  0.000000D+00  0.000000D+00  0.000000D+00  0.000000D+00
               16            17            18            19            20 
     16  0.346370D+00
     17  0.000000D+00  0.658879D-01
     18 -0.989984D-01  0.000000D+00  0.933644D-01
     19 -0.523348D-02  0.286710D-01 -0.151793D-01  0.132001D+00
     20 -0.180711D-02  0.102764D-01 -0.524139D-02 -0.116750D+00  0.266811D+00
     21  0.305050D-02 -0.157663D-01  0.884777D-02  0.476036D-01 -0.824543D-01
     22 -0.522393D-02 -0.286189D-01 -0.151516D-01  0.178214D-01  0.150610D-01
     23  0.180379D-02  0.102579D-01  0.523177D-02 -0.150610D-01 -0.128365D-01
     24  0.304499D-02  0.157375D-01  0.883176D-02  0.119861D-01  0.104016D-01
               21            22            23            24 
     21  0.908947D-01
     22  0.119861D-01  0.131282D+00
     23 -0.104016D-01  0.115910D+00  0.265122D+00
     24  0.874482D-02  0.472651D-01  0.818676D-01  0.904507D-01
 Force constants in internal coordinates: 
                1             2             3             4             5 
      1  0.314332D+00
      2  0.000000D+00  0.380791D+00
      3  0.000000D+00  0.000000D+00  0.370518D+00
      4  0.000000D+00  0.000000D+00  0.000000D+00  0.364279D+00
      5  0.000000D+00  0.000000D+00  0.000000D+00  0.000000D+00  0.380502D+00
      6  0.000000D+00  0.000000D+00  0.000000D+00  0.000000D+00  0.000000D+00
      7  0.000000D+00  0.000000D+00  0.000000D+00  0.000000D+00  0.000000D+00
      8  0.000000D+00  0.000000D+00  0.000000D+00  0.000000D+00  0.000000D+00
      9  0.000000D+00  0.000000D+00  0.000000D+00  0.000000D+00  0.000000D+00
     10  0.000000D+00  0.000000D+00  0.000000D+00  0.000000D+00  0.000000D+00
     11  0.000000D+00  0.000000D+00  0.000000D+00  0.000000D+00  0.000000D+00
     12  0.000000D+00  0.000000D+00  0.000000D+00  0.000000D+00  0.000000D+00
     13  0.000000D+00  0.000000D+00  0.000000D+00  0.000000D+00  0.000000D+00
     14  0.000000D+00  0.000000D+00  0.000000D+00  0.000000D+00  0.000000D+00
     15  0.000000D+00  0.000000D+00  0.000000D+00  0.000000D+00  0.000000D+00
     16  0.000000D+00  0.000000D+00  0.000000D+00  0.000000D+00  0.000000D+00
     17  0.000000D+00  0.000000D+00  0.000000D+00  0.000000D+00  0.000000D+00
     18  0.000000D+00  0.000000D+00  0.000000D+00  0.000000D+00  0.000000D+00
                6             7             8             9            10 
      6  0.367043D+00
      7  0.000000D+00  0.364635D+00
      8  0.000000D+00  0.000000D+00  0.241334D+00
      9  0.000000D+00  0.000000D+00  0.416943D-01  0.240627D+00
     10  0.000000D+00  0.000000D+00  0.401964D-01  0.416948D-01  0.241330D+00
     11  0.000000D+00  0.000000D+00  0.000000D+00  0.000000D+00  0.000000D+00
     12  0.000000D+00  0.000000D+00  0.000000D+00  0.000000D+00  0.000000D+00
     13  0.000000D+00  0.000000D+00  0.000000D+00  0.000000D+00  0.000000D+00
     14  0.000000D+00  0.000000D+00 -0.655293D-01 -0.543126D-05  0.655234D-01
     15  0.000000D+00  0.000000D+00  0.643392D-01 -0.642868D-01 -0.117933D-02
     16  0.000000D+00  0.000000D+00  0.000000D+00  0.000000D+00  0.000000D+00
     17  0.000000D+00  0.000000D+00  0.000000D+00  0.000000D+00  0.000000D+00
     18  0.000000D+00  0.000000D+00  0.000000D+00  0.000000D+00  0.000000D+00
               11            12            13            14            15 
     11  0.239285D+00
     12  0.403902D-01  0.239282D+00
     13  0.403904D-01  0.403912D-01  0.239282D+00
     14  0.000000D+00  0.000000D+00  0.000000D+00  0.234002D+00
     15  0.000000D+00  0.000000D+00  0.000000D+00 -0.107343D+00  0.235969D+00
     16  0.000000D+00  0.000000D+00  0.000000D+00  0.193361D-01  0.193361D-01
     17 -0.643273D-01 -0.527875D-05  0.643209D-01  0.644535D-02  0.644535D-02
     18  0.643264D-01 -0.643210D-01  0.447380D-05  0.644535D-02  0.644535D-02
               16            17            18 
     16  0.580082D-01
     17  0.193368D-01  0.237896D+00
     18  0.193373D-01 -0.109279D+00  0.237896D+00
 Leave Link  716 at Thu May 27 13:53:22 2021, MaxMem=   13107200 cpu:       0.0
 (Enter /programs/64bit/g09/g09-gfortran/bin/l103.exe)

 GradGradGradGradGradGradGradGradGradGradGradGradGradGradGradGradGradGrad
 Berny optimization.
 Search for a local minimum.
 Step number   1 out of a maximum of    2
 All quantities printed in internal units (Hartrees-Bohrs-Radians)
 Second derivative matrix not updated -- first step.
 The second derivative matrix:
                          d1        a1        t1        d2        a2
           d1           0.31433
           a1          -0.00000   0.24133
           t1          -0.00000  -0.06553   0.23400
           d2           0.00000  -0.00000   0.00000   0.38079
           a2          -0.00000   0.04169  -0.00001  -0.00000   0.24063
           t2          -0.00000   0.06434  -0.10734   0.00000  -0.06429
           d3           0.00000  -0.00000  -0.00000  -0.00000  -0.00000
           d4           0.00000   0.00000   0.00000   0.00000  -0.00000
           a3          -0.00000   0.04020   0.06552   0.00000   0.04169
           d5           0.00000  -0.00000   0.00000  -0.00000  -0.00000
           a4           0.00000  -0.00000  -0.00000  -0.00000   0.00000
           t3           0.00000   0.00000   0.01934   0.00000  -0.00000
           d6          -0.00000   0.00000   0.00000   0.00000  -0.00000
           a5          -0.00000   0.00000  -0.00000  -0.00000   0.00000
           t4          -0.00000   0.00000   0.00645   0.00000  -0.00000
           d7           0.00000  -0.00000  -0.00000   0.00000  -0.00000
           a6          -0.00000   0.00000   0.00000   0.00000   0.00000
           t5           0.00000  -0.00000   0.00645  -0.00000  -0.00000
                          t2        d3        d4        a3        d5
           t2           0.23597
           d3           0.00000   0.37052
           d4           0.00000   0.00000   0.36428
           a3          -0.00118  -0.00000   0.00000   0.24133
           d5           0.00000   0.00000   0.00000   0.00000   0.38050
           a4          -0.00000  -0.00000  -0.00000  -0.00000  -0.00000
           t3           0.01934  -0.00000  -0.00000   0.00000  -0.00000
           d6           0.00000   0.00000   0.00000  -0.00000  -0.00000
           a5          -0.00000  -0.00000  -0.00000   0.00000  -0.00000
           t4           0.00645   0.00000  -0.00000   0.00000  -0.00000
           d7          -0.00000  -0.00000   0.00000   0.00000   0.00000
           a6          -0.00000  -0.00000   0.00000  -0.00000  -0.00000
           t5           0.00645   0.00000   0.00000  -0.00000   0.00000
                          a4        t3        d6        a5        t4
           a4           0.23928
           t3          -0.00000   0.05801
           d6           0.00000  -0.00000   0.36704
           a5           0.04039   0.00000  -0.00000   0.23928
           t4          -0.06433   0.01934  -0.00000  -0.00001   0.23790
           d7           0.00000   0.00000   0.00000   0.00000   0.00000
           a6           0.04039  -0.00000  -0.00000   0.04039   0.06432
           t5           0.06433   0.01934  -0.00000  -0.06432  -0.10928
                          d7        a6        t5
           d7           0.36463
           a6          -0.00000   0.23928
           t5           0.00000   0.00000   0.23790
     Eigenvalues --- 1000.000001000.000001000.000001000.000001000.00000
     Eigenvalues --- 1000.000001000.000001000.000001000.000001000.00000
     Eigenvalues --- 1000.000001000.000001000.000001000.000001000.00000
     Eigenvalues --- 1000.000001000.000001000.00000
 Angle between quadratic step and forces=  90.00 degrees.
 Linear search not attempted -- first point.
 Variable       Old X    -DE/DX   Delta X   Delta X   Delta X     New X
                                 (Linear)    (Quad)   (Total)
    d1        2.85193   0.02284   0.00000   0.00000   0.00000   2.85193
    a1        1.90282   0.01236   0.00000   0.00000   0.00000   1.90282
    t1        2.09440   0.00037   0.00000   0.00000   0.00000   2.09440
    d2        2.00950   0.02235   0.00000   0.00000   0.00000   2.00950
    a2        1.92027   0.00871   0.00000   0.00000   0.00000   1.92027
    t2       -2.09440   0.00073   0.00000   0.00000   0.00000  -2.09440
    d3        2.02468   0.01636   0.00000   0.00000   0.00000   2.02468
    d4        2.03418   0.01282   0.00000   0.00000   0.00000   2.03418
    a3        1.90282   0.01215   0.00000   0.00000   0.00000   1.90282
    d5        2.00992   0.02204   0.00000   0.00000   0.00000   2.00992
    a4        1.90281   0.01300   0.00000   0.00000   0.00000   1.90281
    t3        3.14159  -0.00000   0.00000   0.00000   0.00000   3.14159
    d6        2.02994   0.01428   0.00000   0.00000   0.00000   2.02994
    a5        1.90281   0.01277   0.00000   0.00000   0.00000   1.90281
    t4        2.09440   0.00034   0.00000   0.00000   0.00000   2.09440
    d7        2.03363   0.01276   0.00000   0.00000   0.00000   2.03363
    a6        1.90281   0.01220   0.00000   0.00000   0.00000   1.90281
    t5       -2.09440  -0.00031   0.00000   0.00000   0.00000  -2.09440
         Item               Value     Threshold  Converged?
 Maximum Force            0.000000     0.000450     YES
 RMS     Force            0.000000     0.000300     YES
 Maximum Displacement     0.000000     0.001800     YES
 RMS     Displacement     0.000000     0.001200     YES
 Predicted change in Energy=-0.000000D+00
 Optimization completed.
    -- Stationary point found.
                       ----------------------------
                       !   Optimized Parameters   !
                       ! (Angstroms and Degrees)  !
 ----------------------                            ----------------------
 !      Name          Value   Derivative information (Atomic Units)     !
 ------------------------------------------------------------------------
 !       d1          1.5092   -DE/DX =    0.0228                        !
 !       a1        109.0234   -DE/DX =    0.0124                        !
 !       t1        120.0      -DE/DX =    0.0004                        !
 !       d2          1.0634   -DE/DX =    0.0224                        !
 !       a2        110.0236   -DE/DX =    0.0087                        !
 !       t2       -120.0004   -DE/DX =    0.0007                        !
 !       d3          1.0714   -DE/DX =    0.0164                        !
 !       d4          1.0764   -DE/DX =    0.0128                        !
 !       a3        109.0233   -DE/DX =    0.0122                        !
 !       d5          1.0636   -DE/DX =    0.022                         !
 !       a4        109.023    -DE/DX =    0.013                         !
 !       t3        180.0      -DE/DX =    0.0                           !
 !       d6          1.0742   -DE/DX =    0.0143                        !
 !       a5        109.023    -DE/DX =    0.0128                        !
 !       t4        120.0      -DE/DX =    0.0003                        !
 !       d7          1.0762   -DE/DX =    0.0128                        !
 !       a6        109.023    -DE/DX =    0.0122                        !
 !       t5       -120.0      -DE/DX =   -0.0003                        !
 ------------------------------------------------------------------------
 GradGradGradGradGradGradGradGradGradGradGradGradGradGradGradGradGradGrad

 Leave Link  103 at Thu May 27 13:53:22 2021, MaxMem=   13107200 cpu:       0.0
 (Enter /programs/64bit/g09/g09-gfortran/bin/l9999.exe)
 1\1\GINC-MOLMOD\Force\RB3LYP\6-31+G(d,p)\C2H6\OSPITE\27-May-2021\1\\#p
  b3lyp/6-31+g(d,p) force nosym\\c2h6 molecule\\0,1\C\C,1,d1\H,1,d2,2,a
 1\H,1,d3,2,a2,3,t1,0\H,1,d4,2,a3,3,t2,0\H,2,d5,1,a4,3,t3,0\H,2,d6,1,a5
 ,6,t4,0\H,2,d7,1,a6,6,t5,0\\d1=1.50917836\a1=109.02342867\t1=120.00002
 232\d2=1.06338295\a2=110.02362102\t2=-120.00036076\d3=1.07141558\d4=1.
 0764402\a3=109.02333765\d5=1.06360453\a4=109.02299512\t3=179.99999825\
 d6=1.07419979\a5=109.02295503\t4=120.00001781\d7=1.07615049\a6=109.022
 95418\t5=-120.00001261\\Version=EM64L-G09RevA.02\HF=-79.8373783\RMSD=2
 .595e-09\RMSF=9.800e-03\Dipole=-0.0002439,-0.0016565,-0.0015821\Quadru
 pole=0.3243983,0.3205748,-0.6449731,-0.0053475,-0.0027847,0.0159848\PG
 =C01 [X(C2H6)]\\@


 The juvenile sea squirt wanders through the sea searching
 for a suitable rock or hunk of coral to cling to and make
 its home for life.  For this task it has a rudimentary
 nervous system.  When it finds its spot and takes root, it
 doesn't need its brain any more so it eats it.
 It's rather like getting tenure.

                               -- source unknown
 Job cpu time:  0 days  0 hours  0 minutes  6.8 seconds.
 File lengths (MBytes):  RWF=      5 Int=      0 D2E=      0 Chk=      1 Scr=      1
 Normal termination of Gaussian 09 at Thu May 27 13:53:22 2021.
