 Entering Gaussian System, Link 0=g09
 Input=c2h6_033.com
 Output=c2h6_033.log
 Initial command:
 /programs/64bit/g09/g09-gfortran/bin/l1.exe /data/scratch/Gau-17707.inp -scrdir=/data/scratch/
 Entering Link 1 = /programs/64bit/g09/g09-gfortran/bin/l1.exe PID=     17708.
  
 Copyright (c) 1988,1990,1992,1993,1995,1998,2003,2009, Gaussian, Inc.
                  All Rights Reserved.
  
 This is part of the Gaussian(R) 09 program.  It is based on
 the Gaussian(R) 03 system (copyright 2003, Gaussian, Inc.),
 the Gaussian(R) 98 system (copyright 1998, Gaussian, Inc.),
 the Gaussian(R) 94 system (copyright 1995, Gaussian, Inc.),
 the Gaussian 92(TM) system (copyright 1992, Gaussian, Inc.),
 the Gaussian 90(TM) system (copyright 1990, Gaussian, Inc.),
 the Gaussian 88(TM) system (copyright 1988, Gaussian, Inc.),
 the Gaussian 86(TM) system (copyright 1986, Carnegie Mellon
 University), and the Gaussian 82(TM) system (copyright 1983,
 Carnegie Mellon University). Gaussian is a federally registered
 trademark of Gaussian, Inc.
  
 This software contains proprietary and confidential information,
 including trade secrets, belonging to Gaussian, Inc.
  
 This software is provided under written license and may be
 used, copied, transmitted, or stored only in accord with that
 written license.
  
 The following legend is applicable only to US Government
 contracts under FAR:
  
                    RESTRICTED RIGHTS LEGEND
  
 Use, reproduction and disclosure by the US Government is
 subject to restrictions as set forth in subparagraphs (a)
 and (c) of the Commercial Computer Software - Restricted
 Rights clause in FAR 52.227-19.
  
 Gaussian, Inc.
 340 Quinnipiac St., Bldg. 40, Wallingford CT 06492
  
  
 ---------------------------------------------------------------
 Warning -- This program may not be used in any manner that
 competes with the business of Gaussian, Inc. or will provide
 assistance to any competitor of Gaussian, Inc.  The licensee
 of this program is prohibited from giving any competitor of
 Gaussian, Inc. access to this program.  By using this program,
 the user acknowledges that Gaussian, Inc. is engaged in the
 business of creating and licensing software in the field of
 computational chemistry and represents and warrants to the
 licensee that it is not a competitor of Gaussian, Inc. and that
 it will not use this program in any manner prohibited above.
 ---------------------------------------------------------------
  

 Cite this work as:
 Gaussian 09, Revision A.02,
 M. J. Frisch, G. W. Trucks, H. B. Schlegel, G. E. Scuseria, 
 M. A. Robb, J. R. Cheeseman, G. Scalmani, V. Barone, B. Mennucci, 
 G. A. Petersson, H. Nakatsuji, M. Caricato, X. Li, H. P. Hratchian, 
 A. F. Izmaylov, J. Bloino, G. Zheng, J. L. Sonnenberg, M. Hada, 
 M. Ehara, K. Toyota, R. Fukuda, J. Hasegawa, M. Ishida, T. Nakajima, 
 Y. Honda, O. Kitao, H. Nakai, T. Vreven, J. A. Montgomery, Jr., 
 J. E. Peralta, F. Ogliaro, M. Bearpark, J. J. Heyd, E. Brothers, 
 K. N. Kudin, V. N. Staroverov, R. Kobayashi, J. Normand, 
 K. Raghavachari, A. Rendell, J. C. Burant, S. S. Iyengar, J. Tomasi, 
 M. Cossi, N. Rega, J. M. Millam, M. Klene, J. E. Knox, J. B. Cross, 
 V. Bakken, C. Adamo, J. Jaramillo, R. Gomperts, R. E. Stratmann, 
 O. Yazyev, A. J. Austin, R. Cammi, C. Pomelli, J. W. Ochterski, 
 R. L. Martin, K. Morokuma, V. G. Zakrzewski, G. A. Voth, 
 P. Salvador, J. J. Dannenberg, S. Dapprich, A. D. Daniels, 
 O. Farkas, J. B. Foresman, J. V. Ortiz, J. Cioslowski, 
 and D. J. Fox, Gaussian, Inc., Wallingford CT, 2009.
 
 ******************************************
 Gaussian 09:  EM64L-G09RevA.02 11-Jun-2009
                27-May-2021 
 ******************************************
 %chk=c2h6_033.chk
 %mem=100MB
 --------------------------------
 #p b3lyp/6-31+g(d,p) force nosym
 --------------------------------
 1/10=7,30=1,38=1/1,3;
 2/12=2,15=1,17=6,18=5,40=1/2;
 3/5=1,6=6,7=111,11=2,16=1,25=1,30=1,71=1,74=-5/1,2,3;
 4//1;
 5/5=2,38=5/2;
 6/7=2,8=2,9=2,10=2,28=1/1;
 7/29=1,30=1/1,2,3,16;
 1/10=7,30=1/3;
 99//99;
 Leave Link    1 at Thu May 27 13:55:04 2021, MaxMem=   13107200 cpu:       0.0
 (Enter /programs/64bit/g09/g09-gfortran/bin/l101.exe)
 -------------
 c2h6 molecule
 -------------
 Symbolic Z-matrix:
 Charge =  0 Multiplicity = 1
 C1
 C2                   1    d1
 H3                   1    d2       2    a1
 H4                   1    d3       2    a2       3    t1       0
 H5                   1    d4       2    a3       3    t2       0
 H6                   2    d5       1    a4       3    t3       0
 H7                   2    d6       1    a5       6    t4       0
 H8                   2    d7       1    a6       6    t5       0
       Variables:
       Constants:
  d1                    1.52532                  
  a1                  109.97828                  
  t1                  120.00029                  
  d2                    1.08806                  
  a2                  110.68806                  
  t2                 -119.92032                  
  d3                    1.08655                  
  d4                    1.09676                  
  a3                  109.97844                  
  d5                    1.09366                  
  a4                  110.02289                  
  t3                  180.                       
  d6                    1.08472                  
  a5                  110.02422                  
  t4                  120.00003                  
  d7                    1.09778                  
  a6                  109.97007                  
  t5                 -120.                       
 
 NAtoms=      8 NQM=      8 NQMF=      0 NMic=      0 NMicF=      0 NTot=      8.
                    Isotopes and Nuclear Properties:
 (Nuclear quadrupole moments (NQMom) in fm**2, nuclear magnetic moments (NMagM)
  in nuclear magnetons)

  Atom         1           2           3           4           5           6           7           8
 IAtWgt=          12          12           1           1           1           1           1           1
 AtmWgt=  12.0000000  12.0000000   1.0078250   1.0078250   1.0078250   1.0078250   1.0078250   1.0078250
 NucSpn=           0           0           1           1           1           1           1           1
 AtZEff=   0.0000000   0.0000000   0.0000000   0.0000000   0.0000000   0.0000000   0.0000000   0.0000000
 NQMom=    0.0000000   0.0000000   0.0000000   0.0000000   0.0000000   0.0000000   0.0000000   0.0000000
 NMagM=    0.0000000   0.0000000   2.7928460   2.7928460   2.7928460   2.7928460   2.7928460   2.7928460
 Leave Link  101 at Thu May 27 13:55:04 2021, MaxMem=   13107200 cpu:       0.0
 (Enter /programs/64bit/g09/g09-gfortran/bin/l103.exe)

 GradGradGradGradGradGradGradGradGradGradGradGradGradGradGradGradGradGrad
 Berny optimization.
 Initialization pass.
                       ----------------------------
                       !    Initial Parameters    !
                       ! (Angstroms and Degrees)  !
 ----------------------                            ----------------------
 !      Name          Value   Derivative information (Atomic Units)     !
 ------------------------------------------------------------------------
 !       d1          1.5253   Frozen                                    !
 !       a1        109.9783   Frozen                                    !
 !       t1        120.0003   Frozen                                    !
 !       d2          1.0881   Frozen                                    !
 !       a2        110.6881   Frozen                                    !
 !       t2       -119.9203   Frozen                                    !
 !       d3          1.0866   Frozen                                    !
 !       d4          1.0968   Frozen                                    !
 !       a3        109.9784   Frozen                                    !
 !       d5          1.0937   Frozen                                    !
 !       a4        110.0229   Frozen                                    !
 !       t3        180.0      Frozen                                    !
 !       d6          1.0847   Frozen                                    !
 !       a5        110.0242   Frozen                                    !
 !       t4        120.0      Frozen                                    !
 !       d7          1.0978   Frozen                                    !
 !       a6        109.9701   Frozen                                    !
 !       t5       -120.0      Frozen                                    !
 ------------------------------------------------------------------------
 Trust Radius=3.00D-01 FncErr=1.00D-07 GrdErr=1.00D-07
 Number of steps in this run=   2 maximum allowed number of steps=   2.
 GradGradGradGradGradGradGradGradGradGradGradGradGradGradGradGradGradGrad

 Leave Link  103 at Thu May 27 13:55:04 2021, MaxMem=   13107200 cpu:       0.0
 (Enter /programs/64bit/g09/g09-gfortran/bin/l202.exe)
                          Input orientation:                          
 ---------------------------------------------------------------------
 Center     Atomic      Atomic             Coordinates (Angstroms)
 Number     Number       Type             X           Y           Z
 ---------------------------------------------------------------------
      1          6           0        0.000000    0.000000    0.000000
      2          6           0        0.000000    0.000000    1.525323
      3          1           0        1.022585    0.000000   -0.371751
      4          1           0       -0.508249   -0.880303   -0.383857
      5          1           0       -0.514138    0.893379   -0.374726
      6          1           0       -1.027553    0.000000    1.899786
      7          1           0        0.509576   -0.882610    1.896751
      8          1           0        0.515884    0.893537    1.900245
 ---------------------------------------------------------------------
                    Distance matrix (angstroms):
                    1          2          3          4          5
     1  C    0.000000
     2  C    1.525323   0.000000
     3  H    1.088062   2.155126   0.000000
     4  H    1.086552   2.162919   1.765936   0.000000
     5  H    1.096761   2.161631   1.777541   1.773715   0.000000
     6  H    2.159873   1.093658   3.059893   2.501926   2.497024
     7  H    2.153214   1.084724   2.487626   2.497428   3.059695
     8  H    2.162285   1.097776   2.493416   3.067977   2.497287
                    6          7          8
     6  H    0.000000
     7  H    1.772505   0.000000
     8  H    1.783426   1.776162   0.000000
 Symmetry turned off by external request.
 Stoichiometry    C2H6
 Framework group  C1[X(C2H6)]
 Deg. of freedom    18
 Full point group                 C1      NOp   1
 Rotational constants (GHZ):     79.5904103     20.2451779     20.2439747
 Leave Link  202 at Thu May 27 13:55:04 2021, MaxMem=   13107200 cpu:       0.0
 (Enter /programs/64bit/g09/g09-gfortran/bin/l301.exe)
 Standard basis: 6-31+G(d,p) (6D, 7F)
 Ernie: Thresh=  0.10000D-02 Tol=  0.10000D-05 Strict=F.
 Integral buffers will be    131072 words long.
 Raffenetti 2 integral format.
 Two-electron integral symmetry is turned off.
    68 basis functions,   106 primitive gaussians,    68 cartesian basis functions
     9 alpha electrons        9 beta electrons
       nuclear repulsion energy        42.3495602928 Hartrees.
 IExCor=  402 DFT=T Ex+Corr=B3LYP ExCW=0 ScaHFX=  0.200000
 ScaDFX=  0.800000  0.720000  1.000000  0.810000 ScalE2=  1.000000  1.000000
 IRadAn=      0 IRanWt=     -1 IRanGd=            0 ICorTp=0
 NAtoms=    8 NActive=    8 NUniq=    8 SFac= 7.50D-01 NAtFMM=   80 NAOKFM=F Big=F
 Leave Link  301 at Thu May 27 13:55:04 2021, MaxMem=   13107200 cpu:       0.0
 (Enter /programs/64bit/g09/g09-gfortran/bin/l302.exe)
 NPDir=0 NMtPBC=     1 NCelOv=     1 NCel=       1 NClECP=     1 NCelD=      1
         NCelK=      1 NCelE2=     1 NClLst=     1 CellRange=     0.0.
 One-electron integrals computed using PRISM.
 NBasis=    68 RedAO= T  NBF=    68
 NBsUse=    68 1.00D-06 NBFU=    68
 Precomputing XC quadrature grid using
 IXCGrd= 2 IRadAn=           0 IRanWt=          -1 IRanGd=           0 AccXCQ= 1.00D-10.
 NRdTot=     510 NPtTot=       65100 NUsed=       68787 NTot=       68819
 NSgBfM=    68    68    68    68    68 NAtAll=     8     8.
 Leave Link  302 at Thu May 27 13:55:04 2021, MaxMem=   13107200 cpu:       0.1
 (Enter /programs/64bit/g09/g09-gfortran/bin/l303.exe)
 DipDrv:  MaxL=1.
 Leave Link  303 at Thu May 27 13:55:04 2021, MaxMem=   13107200 cpu:       0.0
 (Enter /programs/64bit/g09/g09-gfortran/bin/l401.exe)
 Harris functional with IExCor=  402 diagonalized for initial guess.
 ExpMin= 4.38D-02 ExpMax= 3.05D+03 ExpMxC= 4.57D+02 IAcc=2 IRadAn=         0 AccDes= 0.00D+00
 HarFok:  IExCor=  402 AccDes= 0.00D+00 IRadAn=         0 IDoV= 1
 ScaDFX=  1.000000  1.000000  1.000000  1.000000
 FoFCou: FMM=F IPFlag=           0 FMFlag=      100000 FMFlg1=           0
         NFxFlg=           0 DoJE=T BraDBF=F KetDBF=T FulRan=T
         Omega=  0.000000  0.000000  1.000000  0.000000  0.000000 ICntrl=     500 IOpCl=  0
         NMat0=    1 NMatS0=    1 NMatT0=    0 NMatD0=    1 NMtDS0=    0 NMtDT0=    0
         I1Cent=           4 NGrid=           0.
 Symmetry not used in FoFCou.
 Harris En= -79.9007823500343    
 Leave Link  401 at Thu May 27 13:55:05 2021, MaxMem=   13107200 cpu:       0.6
 (Enter /programs/64bit/g09/g09-gfortran/bin/l502.exe)
 Closed shell SCF:
 Requested convergence on RMS density matrix=1.00D-08 within 128 cycles.
 Requested convergence on MAX density matrix=1.00D-06.
 Requested convergence on             energy=1.00D-06.
 No special actions if energy rises.
 Using DIIS extrapolation, IDIIS=  1040.
 Two-electron integral symmetry not used.
        68702 words used for storage of precomputed grid.
 Keep R1 ints in memory in canonical form, NReq=3743087.
 IEnd=      101552 IEndB=      101552 NGot=    13107200 MDV=    10273922
 LenX=    10273922 LenY=    10268857
 Symmetry not used in FoFDir.
 MinBra= 0 MaxBra= 2 Meth= 1.
 IRaf=       0 NMat=   1 IRICut=       1 DoRegI=T DoRafI=F ISym2E= 0 JSym2E=0.

 Cycle   1  Pass 1  IDiag  1:
 E= -79.7062129558081    
 DIIS: error= 4.04D-02 at cycle   1 NSaved=   1.
 NSaved= 1 IEnMin= 1 EnMin= -79.7062129558081     IErMin= 1 ErrMin= 4.04D-02
 ErrMax= 4.04D-02 EMaxC= 1.00D-01 BMatC= 1.19D-01 BMatP= 1.19D-01
 IDIUse=3 WtCom= 5.96D-01 WtEn= 4.04D-01
 Coeff-Com:  0.100D+01
 Coeff-En:   0.100D+01
 Coeff:      0.100D+01
 Gap=     0.279 Goal=   None    Shift=    0.000
 GapD=    0.279 DampG=1.000 DampE=0.500 DampFc=0.5000 IDamp=-1.
 Damping current iteration by 5.00D-01
 RMSDP=9.75D-03 MaxDP=1.42D-01              OVMax= 2.03D-01

 Cycle   2  Pass 1  IDiag  1:
 E= -79.7620903222724     Delta-E=       -0.055877366464 Rises=F Damp=T
 DIIS: error= 1.19D-02 at cycle   2 NSaved=   2.
 NSaved= 2 IEnMin= 2 EnMin= -79.7620903222724     IErMin= 2 ErrMin= 1.19D-02
 ErrMax= 1.19D-02 EMaxC= 1.00D-01 BMatC= 4.64D-03 BMatP= 1.19D-01
 IDIUse=3 WtCom= 8.81D-01 WtEn= 1.19D-01
 Coeff-Com:  0.109D+00 0.891D+00
 Coeff-En:   0.187D+00 0.813D+00
 Coeff:      0.118D+00 0.882D+00
 Gap=     0.380 Goal=   None    Shift=    0.000
 RMSDP=1.31D-03 MaxDP=1.04D-02 DE=-5.59D-02 OVMax= 1.26D-01

 Cycle   3  Pass 1  IDiag  1:
 E= -79.8408357003925     Delta-E=       -0.078745378120 Rises=F Damp=F
 DIIS: error= 2.30D-03 at cycle   3 NSaved=   3.
 NSaved= 3 IEnMin= 3 EnMin= -79.8408357003925     IErMin= 3 ErrMin= 2.30D-03
 ErrMax= 2.30D-03 EMaxC= 1.00D-01 BMatC= 1.60D-04 BMatP= 4.64D-03
 IDIUse=3 WtCom= 9.77D-01 WtEn= 2.30D-02
 Coeff-Com:  0.776D-02 0.108D+00 0.884D+00
 Coeff-En:   0.000D+00 0.000D+00 0.100D+01
 Coeff:      0.758D-02 0.106D+00 0.886D+00
 Gap=     0.363 Goal=   None    Shift=    0.000
 RMSDP=2.02D-04 MaxDP=2.16D-03 DE=-7.87D-02 OVMax= 4.60D-03

 Cycle   4  Pass 1  IDiag  1:
 E= -79.8409731305406     Delta-E=       -0.000137430148 Rises=F Damp=F
 DIIS: error= 6.95D-04 at cycle   4 NSaved=   4.
 NSaved= 4 IEnMin= 4 EnMin= -79.8409731305406     IErMin= 4 ErrMin= 6.95D-04
 ErrMax= 6.95D-04 EMaxC= 1.00D-01 BMatC= 1.05D-05 BMatP= 1.60D-04
 IDIUse=3 WtCom= 9.93D-01 WtEn= 6.95D-03
 Coeff-Com: -0.505D-03-0.570D-02 0.193D+00 0.814D+00
 Coeff-En:   0.000D+00 0.000D+00 0.000D+00 0.100D+01
 Coeff:     -0.501D-03-0.567D-02 0.191D+00 0.815D+00
 Gap=     0.363 Goal=   None    Shift=    0.000
 RMSDP=4.37D-05 MaxDP=4.37D-04 DE=-1.37D-04 OVMax= 1.21D-03

 Cycle   5  Pass 1  IDiag  1:
 E= -79.8409830408847     Delta-E=       -0.000009910344 Rises=F Damp=F
 DIIS: error= 2.49D-05 at cycle   5 NSaved=   5.
 NSaved= 5 IEnMin= 5 EnMin= -79.8409830408847     IErMin= 5 ErrMin= 2.49D-05
 ErrMax= 2.49D-05 EMaxC= 1.00D-01 BMatC= 3.38D-08 BMatP= 1.05D-05
 IDIUse=1 WtCom= 1.00D+00 WtEn= 0.00D+00
 Coeff-Com:  0.359D-03-0.702D-03 0.215D-02 0.231D-01 0.975D+00
 Coeff:      0.359D-03-0.702D-03 0.215D-02 0.231D-01 0.975D+00
 Gap=     0.363 Goal=   None    Shift=    0.000
 RMSDP=3.17D-06 MaxDP=7.52D-05 DE=-9.91D-06 OVMax= 1.01D-04

 Cycle   6  Pass 1  IDiag  1:
 E= -79.8409830677637     Delta-E=       -0.000000026879 Rises=F Damp=F
 DIIS: error= 2.03D-05 at cycle   6 NSaved=   6.
 NSaved= 6 IEnMin= 6 EnMin= -79.8409830677637     IErMin= 6 ErrMin= 2.03D-05
 ErrMax= 2.03D-05 EMaxC= 1.00D-01 BMatC= 1.17D-08 BMatP= 3.38D-08
 IDIUse=1 WtCom= 1.00D+00 WtEn= 0.00D+00
 Coeff-Com:  0.209D-03-0.215D-03-0.464D-02-0.120D-01 0.515D+00 0.501D+00
 Coeff:      0.209D-03-0.215D-03-0.464D-02-0.120D-01 0.515D+00 0.501D+00
 Gap=     0.363 Goal=   None    Shift=    0.000
 RMSDP=1.25D-06 MaxDP=2.67D-05 DE=-2.69D-08 OVMax= 3.63D-05

 Cycle   7  Pass 1  IDiag  1:
 E= -79.8409830790499     Delta-E=       -0.000000011286 Rises=F Damp=F
 DIIS: error= 1.05D-06 at cycle   7 NSaved=   7.
 NSaved= 7 IEnMin= 7 EnMin= -79.8409830790499     IErMin= 7 ErrMin= 1.05D-06
 ErrMax= 1.05D-06 EMaxC= 1.00D-01 BMatC= 4.25D-11 BMatP= 1.17D-08
 IDIUse=1 WtCom= 1.00D+00 WtEn= 0.00D+00
 Coeff-Com: -0.493D-05-0.163D-06-0.365D-03-0.129D-02 0.271D-02 0.519D-01
 Coeff-Com:  0.947D+00
 Coeff:     -0.493D-05-0.163D-06-0.365D-03-0.129D-02 0.271D-02 0.519D-01
 Coeff:      0.947D+00
 Gap=     0.363 Goal=   None    Shift=    0.000
 RMSDP=1.16D-07 MaxDP=1.65D-06 DE=-1.13D-08 OVMax= 2.23D-06

 Cycle   8  Pass 1  IDiag  1:
 E= -79.8409830790952     Delta-E=       -0.000000000045 Rises=F Damp=F
 DIIS: error= 1.94D-07 at cycle   8 NSaved=   8.
 NSaved= 8 IEnMin= 8 EnMin= -79.8409830790952     IErMin= 8 ErrMin= 1.94D-07
 ErrMax= 1.94D-07 EMaxC= 1.00D-01 BMatC= 1.48D-12 BMatP= 4.25D-11
 IDIUse=1 WtCom= 1.00D+00 WtEn= 0.00D+00
 Coeff-Com: -0.361D-05 0.186D-05-0.785D-04-0.333D-03-0.392D-02 0.131D-01
 Coeff-Com:  0.324D+00 0.667D+00
 Coeff:     -0.361D-05 0.186D-05-0.785D-04-0.333D-03-0.392D-02 0.131D-01
 Coeff:      0.324D+00 0.667D+00
 Gap=     0.363 Goal=   None    Shift=    0.000
 RMSDP=2.51D-08 MaxDP=2.34D-07 DE=-4.53D-11 OVMax= 3.97D-07

 Cycle   9  Pass 1  IDiag  1:
 E= -79.8409830790966     Delta-E=       -0.000000000001 Rises=F Damp=F
 DIIS: error= 1.39D-08 at cycle   9 NSaved=   9.
 NSaved= 9 IEnMin= 9 EnMin= -79.8409830790966     IErMin= 9 ErrMin= 1.39D-08
 ErrMax= 1.39D-08 EMaxC= 1.00D-01 BMatC= 6.78D-15 BMatP= 1.48D-12
 IDIUse=1 WtCom= 1.00D+00 WtEn= 0.00D+00
 Coeff-Com: -0.200D-07 0.204D-06 0.828D-05 0.127D-04-0.460D-03-0.101D-02
 Coeff-Com: -0.120D-01 0.242D-01 0.989D+00
 Coeff:     -0.200D-07 0.204D-06 0.828D-05 0.127D-04-0.460D-03-0.101D-02
 Coeff:     -0.120D-01 0.242D-01 0.989D+00
 Gap=     0.363 Goal=   None    Shift=    0.000
 RMSDP=1.67D-09 MaxDP=1.70D-08 DE=-1.42D-12 OVMax= 4.77D-08

 SCF Done:  E(RB3LYP) =  -79.8409830791     A.U. after    9 cycles
             Convg  =    0.1670D-08             -V/T =  2.0103
 KE= 7.902490358958D+01 PE=-2.684780223893D+02 EE= 6.726257542775D+01
 Leave Link  502 at Thu May 27 13:55:10 2021, MaxMem=   13107200 cpu:       4.8
 (Enter /programs/64bit/g09/g09-gfortran/bin/l601.exe)
 Copying SCF densities to generalized density rwf, IOpCl= 0 IROHF=0.

 **********************************************************************

            Population analysis using the SCF density.

 **********************************************************************

 Alpha  occ. eigenvalues --  -10.17559 -10.17494  -0.75621  -0.61464  -0.43918
 Alpha  occ. eigenvalues --   -0.43862  -0.36352  -0.34564  -0.34536
 Alpha virt. eigenvalues --    0.01764   0.03170   0.05293   0.05299   0.07989
 Alpha virt. eigenvalues --    0.08988   0.08991   0.14309   0.19286   0.19321
 Alpha virt. eigenvalues --    0.20327   0.20426   0.25537   0.29664   0.33026
 Alpha virt. eigenvalues --    0.61553   0.64385   0.64395   0.66610   0.66689
 Alpha virt. eigenvalues --    0.70019   0.91775   0.91838   0.97184   0.97230
 Alpha virt. eigenvalues --    1.00268   1.10213   1.11450   1.32105   1.32258
 Alpha virt. eigenvalues --    1.46599   1.68674   1.68858   1.91014   2.04697
 Alpha virt. eigenvalues --    2.04875   2.09309   2.09818   2.10557   2.10878
 Alpha virt. eigenvalues --    2.28424   2.28660   2.38105   2.49065   2.49348
 Alpha virt. eigenvalues --    2.68117   2.75650   2.80966   2.81161   2.91977
 Alpha virt. eigenvalues --    2.92347   3.22813   3.28049   3.38059   3.38220
 Alpha virt. eigenvalues --    3.53076   3.53290   4.33518   4.58641
          Condensed to atoms (all electrons):
              1          2          3          4          5          6
     1  C    5.093767   0.262712   0.406231   0.405597   0.406394  -0.046868
     2  C    0.262712   5.091120  -0.046685  -0.045251  -0.047095   0.406197
     3  H    0.406231  -0.046685   0.557702  -0.029354  -0.028568   0.004922
     4  H    0.405597  -0.045251  -0.029354   0.556892  -0.028965  -0.004515
     5  H    0.406394  -0.047095  -0.028568  -0.028965   0.558761  -0.004579
     6  H   -0.046868   0.406197   0.004922  -0.004515  -0.004579   0.557895
     7  H   -0.046428   0.406048  -0.004606  -0.004512   0.004921  -0.028898
     8  H   -0.047555   0.406974  -0.004618   0.004841  -0.004617  -0.028517
              7          8
     1  C   -0.046428  -0.047555
     2  C    0.406048   0.406974
     3  H   -0.004606  -0.004618
     4  H   -0.004512   0.004841
     5  H    0.004921  -0.004617
     6  H   -0.028898  -0.028517
     7  H    0.556677  -0.028826
     8  H   -0.028826   0.558429
 Mulliken atomic charges:
              1
     1  C   -0.433849
     2  C   -0.434021
     3  H    0.144976
     4  H    0.145267
     5  H    0.143748
     6  H    0.144364
     7  H    0.145625
     8  H    0.143889
 Sum of Mulliken atomic charges =  -0.00000
 Mulliken charges with hydrogens summed into heavy atoms:
              1
     1  C    0.000143
     2  C   -0.000143
 Sum of Mulliken charges with hydrogens summed into heavy atoms =  -0.00000
 Electronic spatial extent (au):  <R**2>=            146.6808
 Charge=             -0.0000 electrons
 Dipole moment (field-independent basis, Debye):
    X=              0.0049    Y=             -0.0143    Z=             -0.0037  Tot=              0.0156
 Quadrupole moment (field-independent basis, Debye-Ang):
   XX=            -14.9717   YY=            -14.9733   ZZ=            -16.0261
   XY=             -0.0036   XZ=              0.0105   YZ=              0.0015
 Traceless Quadrupole moment (field-independent basis, Debye-Ang):
   XX=              0.3520   YY=              0.3504   ZZ=             -0.7024
   XY=             -0.0036   XZ=              0.0105   YZ=              0.0015
 Octapole moment (field-independent basis, Debye-Ang**2):
  XXX=              0.0162  YYY=             -0.1113  ZZZ=            -36.6878  XYY=              0.0165
  XXY=             -0.0381  XXZ=            -11.4084  XZZ=              0.0127  YZZ=             -0.0716
  YYZ=            -11.4131  XYZ=              0.0038
 Hexadecapole moment (field-independent basis, Debye-Ang**3):
 XXXX=            -31.1445 YYYY=            -31.1610 ZZZZ=           -153.7638 XXXY=             -0.0068
 XXXZ=             -1.2544 YYYX=             -0.0084 YYYZ=             -0.0963 ZZZX=              0.0318
 ZZZY=             -0.1445 XXYY=            -10.3856 XXZZ=            -29.1612 YYZZ=            -29.1553
 XXYZ=             -0.0317 YYXZ=              1.2753 ZZXY=              0.0160
 N-N= 4.234956029283D+01 E-N=-2.684780227556D+02  KE= 7.902490358958D+01
 No NMR shielding tensors so no spin-rotation constants.
 Leave Link  601 at Thu May 27 13:55:10 2021, MaxMem=   13107200 cpu:       0.0
 (Enter /programs/64bit/g09/g09-gfortran/bin/l701.exe)
 Compute integral first derivatives.
 ... and contract with generalized density number  0.
 Leave Link  701 at Thu May 27 13:55:10 2021, MaxMem=   13107200 cpu:       0.0
 (Enter /programs/64bit/g09/g09-gfortran/bin/l702.exe)
 L702 exits ... SP integral derivatives will be done elsewhere.
 Leave Link  702 at Thu May 27 13:55:10 2021, MaxMem=   13107200 cpu:       0.0
 (Enter /programs/64bit/g09/g09-gfortran/bin/l703.exe)
 Compute integral first derivatives, UseDBF=F ICtDFT=           0.
 Integral derivatives from FoFDir, PRISM(SPDF).
 Calling FoFJK, ICntrl=      2127 FMM=F ISym2X=0 I1Cent= 0 IOpClX= 0 NMat=1 NMatS=1 NMatT=0.
 FoFCou: FMM=F IPFlag=           0 FMFlag=      100000 FMFlg1=         800
         NFxFlg=           0 DoJE=F BraDBF=F KetDBF=F FulRan=T
         Omega=  0.000000  0.000000  1.000000  0.000000  0.000000 ICntrl=    2127 IOpCl=  0
         NMat0=    1 NMatS0=    1 NMatT0=    0 NMatD0=    1 NMtDS0=    0 NMtDT0=    0
         I1Cent=           0 NGrid=           0.
 Symmetry not used in FoFCou.
 Leave Link  703 at Thu May 27 13:55:11 2021, MaxMem=   13107200 cpu:       1.1
 (Enter /programs/64bit/g09/g09-gfortran/bin/l716.exe)
 Dipole        = 1.92763396D-03-5.64329463D-03-1.45088675D-03
 -------------------------------------------------------------------
 Center     Atomic                   Forces (Hartrees/Bohr)
 Number     Number              X              Y              Z
 -------------------------------------------------------------------
      1        6          -0.001684688    0.005690658    0.003323835
      2        6          -0.001912785    0.005919304   -0.003531578
      3        1           0.003280177    0.000430681   -0.004760111
      4        1          -0.002401487   -0.003787726   -0.004110938
      5        1           0.001217380   -0.001637760   -0.002865897
      6        1           0.000328613    0.000201634    0.003655331
      7        1           0.002667721   -0.004457901    0.005677279
      8        1          -0.001494931   -0.002358888    0.002612078
 -------------------------------------------------------------------
 Cartesian Forces:  Max     0.005919304 RMS     0.003340329
 -----------------------------------------------------------------------------------------------
                       Internal Coordinate Forces (Hartree/Bohr or radian)
  Cent   Atom   N1       Length/X         N2         Alpha/Y        N3         Beta/Z          J
 -----------------------------------------------------------------------------------------------
      1  C 
      2  C        1   0.008413(     1)
      3  H        1   0.004709(     2)      2   0.006894(     8)
      4  H        1   0.005644(     3)      2   0.004646(     9)      3   0.000357(    14)     0
      5  H        1  -0.000926(     4)      2   0.007018(    10)      3   0.000464(    15)     0
      6  H        2   0.000943(     5)      1   0.007330(    11)      3  -0.000010(    16)     0
      7  H        2   0.006824(     6)      1   0.007288(    12)      6   0.000157(    17)     0
      8  H        2  -0.001730(     7)      1   0.007070(    13)      6   0.000225(    18)     0
 -----------------------------------------------------------------------------------------------
 Internal  Forces:  Max     0.008413111 RMS     0.005009661
 Force constants in Cartesian coordinates: 
                1             2             3             4             5 
      1  0.661586D+00
      2  0.330286D-02  0.658250D+00
      3  0.142089D-03  0.529484D-02  0.630066D+00
      4 -0.902911D-01 -0.102916D-03 -0.164384D-03  0.657756D+00
      5 -0.103046D-03 -0.904506D-01  0.980859D-04 -0.491211D-02  0.660044D+00
      6  0.606267D-04 -0.256537D-03 -0.298596D+00  0.734970D-03 -0.395493D-02
      7 -0.314525D+00 -0.782012D-04  0.873149D-01  0.925819D-02 -0.156717D-05
      8  0.484589D-04 -0.790698D-01 -0.257813D-03  0.757402D-05  0.120362D-02
      9  0.986162D-01 -0.215110D-03 -0.110197D+00  0.254667D-01 -0.431085D-05
     10 -0.137860D+00 -0.101314D+00 -0.450483D-01  0.334686D-02  0.361287D-02
     11 -0.101565D+00 -0.255271D+00 -0.782343D-01  0.360383D-02  0.750212D-02
     12 -0.508009D-01 -0.880086D-01 -0.113079D+00 -0.126961D-01 -0.219883D-01
     13 -0.134548D+00  0.982436D-01 -0.422444D-01  0.317492D-02 -0.346032D-02
     14  0.983681D-01 -0.249106D+00  0.730992D-01 -0.346048D-02  0.719223D-02
     15 -0.479574D-01  0.829289D-01 -0.108194D+00 -0.126062D-01  0.218946D-01
     16  0.923006D-02  0.000000D+00  0.000000D+00 -0.308692D+00  0.259542D-04
     17 -0.222580D-04  0.119411D-02  0.000000D+00 -0.301183D-03 -0.789370D-01
     18  0.253279D-01  0.000000D+00  0.000000D+00  0.967054D-01  0.711979D-04
     19  0.324650D-02 -0.351224D-02  0.000000D+00 -0.139467D+00  0.102983D+00
     20 -0.349892D-02  0.727916D-02  0.000000D+00  0.103074D+00 -0.258514D+00
     21 -0.127683D-01  0.221157D-01  0.000000D+00 -0.498001D-01  0.863159D-01
     22  0.316179D-02  0.346090D-02  0.000000D+00 -0.135087D+00 -0.981449D-01
     23  0.346989D-02  0.717383D-02  0.000000D+00 -0.979087D-01 -0.248040D+00
     24 -0.126202D-01 -0.218592D-01  0.000000D+00 -0.476403D-01 -0.824321D-01
                6             7             8             9            10 
      6  0.625486D+00
      7  0.000000D+00  0.316265D+00
      8  0.000000D+00  0.702993D-04  0.596893D-01
      9  0.000000D+00 -0.938299D-01  0.193374D-03  0.922759D-01
     10  0.000000D+00 -0.558358D-02 -0.272332D-01 -0.153589D-01  0.123856D+00
     11  0.000000D+00  0.178082D-02  0.900636D-02  0.489855D-02  0.110621D+00
     12  0.000000D+00  0.330901D-02  0.154039D-01  0.910215D-02  0.485755D-01
     13  0.000000D+00 -0.541462D-02  0.271191D-01 -0.148941D-01  0.162516D-01
     14  0.000000D+00 -0.177135D-02  0.917285D-02 -0.487250D-02  0.143155D-01
     15  0.000000D+00  0.320599D-02 -0.153395D-01  0.881878D-02  0.118316D-01
     16  0.857499D-01  0.000000D+00  0.000000D+00  0.000000D+00  0.000000D+00
     17  0.193035D-03  0.000000D+00  0.114856D-02  0.000000D+00  0.100065D-02
     18 -0.108630D+00  0.000000D+00  0.000000D+00  0.000000D+00  0.000000D+00
     19 -0.443213D-01  0.000000D+00 -0.100288D-02  0.000000D+00 -0.873729D-03
     20  0.768986D-01  0.000000D+00 -0.579016D-03  0.000000D+00 -0.504448D-03
     21 -0.110758D+00  0.000000D+00  0.000000D+00  0.000000D+00  0.000000D+00
     22 -0.422241D-01  0.000000D+00  0.990619D-03  0.000000D+00  0.863044D-03
     23 -0.728801D-01  0.000000D+00 -0.571935D-03  0.000000D+00 -0.498279D-03
     24 -0.107501D+00  0.000000D+00  0.000000D+00  0.000000D+00  0.000000D+00
               11            12            13            14            15 
     11  0.251596D+00
     12  0.841135D-01  0.949262D-01
     13 -0.144466D-01  0.116125D-01  0.120526D+00
     14 -0.128347D-01  0.104794D-01 -0.107458D+00  0.245574D+00
     15 -0.107778D-01  0.905112D-02  0.455260D-01 -0.787061D-01  0.903238D-01
     16  0.000000D+00  0.000000D+00  0.000000D+00  0.000000D+00  0.000000D+00
     17 -0.577730D-03  0.000000D+00 -0.987587D-03 -0.568354D-03  0.000000D+00
     18  0.000000D+00  0.000000D+00  0.000000D+00  0.000000D+00  0.000000D+00
     19  0.504454D-03  0.000000D+00  0.862326D-03  0.496267D-03  0.000000D+00
     20  0.291247D-03  0.000000D+00  0.497865D-03  0.286520D-03  0.000000D+00
     21  0.000000D+00  0.000000D+00  0.000000D+00  0.000000D+00  0.000000D+00
     22 -0.498284D-03  0.000000D+00 -0.851781D-03 -0.490198D-03  0.000000D+00
     23  0.287685D-03  0.000000D+00  0.491776D-03  0.283016D-03  0.000000D+00
     24  0.000000D+00  0.000000D+00  0.000000D+00  0.000000D+00  0.000000D+00
               16            17            18            19            20 
     16  0.310327D+00
     17 -0.548477D-05  0.593866D-01
     18 -0.922173D-01 -0.150267D-04  0.908827D-01
     19 -0.546984D-02  0.272338D-01 -0.150096D-01  0.125176D+00
     20 -0.178799D-02  0.922121D-02 -0.490637D-02 -0.112245D+00  0.254773D+00
     21  0.325554D-02 -0.154511D-01  0.893341D-02  0.476134D-01 -0.824971D-01
     22 -0.539575D-02 -0.269180D-01 -0.148063D-01  0.165254D-01  0.144644D-01
     23  0.176752D-02  0.913262D-02  0.485020D-02 -0.144575D-01 -0.127588D-01
     24  0.321195D-02  0.152731D-01  0.881380D-02  0.117176D-01  0.105049D-01
               21            22            23            24 
     21  0.929385D-01
     22  0.116995D-01  0.120784D+00
     23 -0.104834D-01  0.107135D+00  0.244494D+00
     24  0.888655D-02  0.453309D-01  0.785134D-01  0.898005D-01
 Force constants in internal coordinates: 
                1             2             3             4             5 
      1  0.298596D+00
      2  0.000000D+00  0.350376D+00
      3  0.000000D+00  0.000000D+00  0.352141D+00
      4  0.000000D+00  0.000000D+00  0.000000D+00  0.340429D+00
      5  0.000000D+00  0.000000D+00  0.000000D+00  0.000000D+00  0.343933D+00
      6  0.000000D+00  0.000000D+00  0.000000D+00  0.000000D+00  0.000000D+00
      7  0.000000D+00  0.000000D+00  0.000000D+00  0.000000D+00  0.000000D+00
      8  0.000000D+00  0.000000D+00  0.000000D+00  0.000000D+00  0.000000D+00
      9  0.000000D+00  0.000000D+00  0.000000D+00  0.000000D+00  0.000000D+00
     10  0.000000D+00  0.000000D+00  0.000000D+00  0.000000D+00  0.000000D+00
     11  0.000000D+00  0.000000D+00  0.000000D+00  0.000000D+00  0.000000D+00
     12  0.000000D+00  0.000000D+00  0.000000D+00  0.000000D+00  0.000000D+00
     13  0.000000D+00  0.000000D+00  0.000000D+00  0.000000D+00  0.000000D+00
     14  0.000000D+00  0.000000D+00  0.000000D+00  0.000000D+00  0.000000D+00
     15  0.000000D+00  0.000000D+00  0.000000D+00  0.000000D+00  0.000000D+00
     16  0.000000D+00  0.000000D+00  0.000000D+00  0.000000D+00  0.000000D+00
     17  0.000000D+00  0.000000D+00  0.000000D+00  0.000000D+00  0.000000D+00
     18  0.000000D+00  0.000000D+00  0.000000D+00  0.000000D+00  0.000000D+00
                6             7             8             9            10 
      6  0.354295D+00
      7  0.000000D+00  0.339292D+00
      8  0.000000D+00  0.000000D+00  0.245904D+00
      9  0.000000D+00  0.000000D+00  0.437067D-01  0.245565D+00
     10  0.000000D+00  0.000000D+00  0.425481D-01  0.438092D-01  0.246003D+00
     11  0.000000D+00  0.000000D+00  0.000000D+00  0.000000D+00  0.000000D+00
     12  0.000000D+00  0.000000D+00  0.000000D+00  0.000000D+00  0.000000D+00
     13  0.000000D+00  0.000000D+00  0.000000D+00  0.000000D+00  0.000000D+00
     14  0.000000D+00  0.000000D+00 -0.661912D-01  0.436787D-04  0.662332D-01
     15  0.000000D+00  0.000000D+00  0.653689D-01 -0.653754D-01 -0.859284D-03
     16  0.000000D+00  0.000000D+00  0.000000D+00  0.000000D+00  0.000000D+00
     17  0.000000D+00  0.000000D+00  0.000000D+00  0.000000D+00  0.000000D+00
     18  0.000000D+00  0.000000D+00  0.000000D+00  0.000000D+00  0.000000D+00
               11            12            13            14            15 
     11  0.244646D+00
     12  0.428721D-01  0.244647D+00
     13  0.427923D-01  0.427934D-01  0.244684D+00
     14  0.000000D+00  0.000000D+00  0.000000D+00  0.221352D+00
     15  0.000000D+00  0.000000D+00  0.000000D+00 -0.104181D+00  0.222815D+00
     16  0.000000D+00  0.000000D+00  0.000000D+00  0.129293D-01  0.129293D-01
     17 -0.654601D-01 -0.597176D-04  0.654646D-01  0.430978D-02  0.430978D-02
     18  0.653949D-01 -0.653975D-01 -0.447366D-05  0.430978D-02  0.430978D-02
               16            17            18 
     16  0.387881D-01
     17  0.129265D-01  0.223916D+00
     18  0.129322D-01 -0.105545D+00  0.224024D+00
 Leave Link  716 at Thu May 27 13:55:11 2021, MaxMem=   13107200 cpu:       0.0
 (Enter /programs/64bit/g09/g09-gfortran/bin/l103.exe)

 GradGradGradGradGradGradGradGradGradGradGradGradGradGradGradGradGradGrad
 Berny optimization.
 Search for a local minimum.
 Step number   1 out of a maximum of    2
 All quantities printed in internal units (Hartrees-Bohrs-Radians)
 Second derivative matrix not updated -- first step.
 The second derivative matrix:
                          d1        a1        t1        d2        a2
           d1           0.29860
           a1           0.00000   0.24590
           t1           0.00000  -0.06619   0.22135
           d2           0.00000   0.00000  -0.00000   0.35038
           a2           0.00000   0.04371   0.00004   0.00000   0.24556
           t2           0.00000   0.06537  -0.10418   0.00000  -0.06538
           d3          -0.00000  -0.00000  -0.00000   0.00000  -0.00000
           d4          -0.00000   0.00000   0.00000  -0.00000   0.00000
           a3           0.00000   0.04255   0.06623   0.00000   0.04381
           d5           0.00000   0.00000  -0.00000   0.00000   0.00000
           a4          -0.00000   0.00000  -0.00000   0.00000   0.00000
           t3          -0.00000   0.00000   0.01293   0.00000   0.00000
           d6           0.00000   0.00000   0.00000   0.00000   0.00000
           a5          -0.00000   0.00000   0.00000   0.00000  -0.00000
           t4          -0.00000   0.00000   0.00431   0.00000  -0.00000
           d7          -0.00000   0.00000   0.00000   0.00000   0.00000
           a6           0.00000   0.00000   0.00000   0.00000  -0.00000
           t5          -0.00000   0.00000   0.00431   0.00000  -0.00000
                          t2        d3        d4        a3        d5
           t2           0.22281
           d3           0.00000   0.35214
           d4           0.00000  -0.00000   0.34043
           a3          -0.00086  -0.00000   0.00000   0.24600
           d5          -0.00000  -0.00000  -0.00000   0.00000   0.34393
           a4          -0.00000  -0.00000   0.00000  -0.00000  -0.00000
           t3           0.01293  -0.00000   0.00000   0.00000  -0.00000
           d6           0.00000  -0.00000  -0.00000   0.00000   0.00000
           a5          -0.00000   0.00000  -0.00000   0.00000  -0.00000
           t4           0.00431  -0.00000  -0.00000   0.00000  -0.00000
           d7          -0.00000  -0.00000  -0.00000   0.00000  -0.00000
           a6           0.00000   0.00000   0.00000  -0.00000  -0.00000
           t5           0.00431  -0.00000   0.00000   0.00000   0.00000
                          a4        t3        d6        a5        t4
           a4           0.24465
           t3          -0.00000   0.03879
           d6           0.00000   0.00000   0.35430
           a5           0.04287   0.00000  -0.00000   0.24465
           t4          -0.06546   0.01293   0.00000  -0.00006   0.22392
           d7          -0.00000   0.00000  -0.00000  -0.00000   0.00000
           a6           0.04279   0.00000   0.00000   0.04279   0.06546
           t5           0.06539   0.01293  -0.00000  -0.06540  -0.10554
                          d7        a6        t5
           d7           0.33929
           a6           0.00000   0.24468
           t5           0.00000  -0.00000   0.22402
     Eigenvalues --- 1000.000001000.000001000.000001000.000001000.00000
     Eigenvalues --- 1000.000001000.000001000.000001000.000001000.00000
     Eigenvalues --- 1000.000001000.000001000.000001000.000001000.00000
     Eigenvalues --- 1000.000001000.000001000.00000
 Angle between quadratic step and forces=  90.00 degrees.
 Linear search not attempted -- first point.
 Variable       Old X    -DE/DX   Delta X   Delta X   Delta X     New X
                                 (Linear)    (Quad)   (Total)
    d1        2.88244   0.00841   0.00000   0.00000   0.00000   2.88244
    a1        1.91948   0.00689   0.00000   0.00000   0.00000   1.91948
    t1        2.09440   0.00036   0.00000   0.00000   0.00000   2.09440
    d2        2.05614   0.00471   0.00000   0.00000   0.00000   2.05614
    a2        1.93187   0.00465   0.00000   0.00000   0.00000   1.93187
    t2       -2.09300   0.00046   0.00000   0.00000   0.00000  -2.09300
    d3        2.05329   0.00564   0.00000   0.00000   0.00000   2.05329
    d4        2.07258  -0.00093   0.00000   0.00000   0.00000   2.07258
    a3        1.91949   0.00702   0.00000   0.00000   0.00000   1.91949
    d5        2.06671   0.00094   0.00000   0.00000   0.00000   2.06671
    a4        1.92026   0.00733   0.00000   0.00000   0.00000   1.92026
    t3        3.14159  -0.00001   0.00000   0.00000   0.00000   3.14159
    d6        2.04983   0.00682   0.00000   0.00000   0.00000   2.04983
    a5        1.92028   0.00729   0.00000   0.00000   0.00000   1.92028
    t4        2.09440   0.00016   0.00000   0.00000   0.00000   2.09440
    d7        2.07450  -0.00173   0.00000   0.00000   0.00000   2.07450
    a6        1.91934   0.00707   0.00000   0.00000   0.00000   1.91934
    t5       -2.09440   0.00022   0.00000   0.00000   0.00000  -2.09440
         Item               Value     Threshold  Converged?
 Maximum Force            0.000000     0.000450     YES
 RMS     Force            0.000000     0.000300     YES
 Maximum Displacement     0.000000     0.001800     YES
 RMS     Displacement     0.000000     0.001200     YES
 Predicted change in Energy=-0.000000D+00
 Optimization completed.
    -- Stationary point found.
                       ----------------------------
                       !   Optimized Parameters   !
                       ! (Angstroms and Degrees)  !
 ----------------------                            ----------------------
 !      Name          Value   Derivative information (Atomic Units)     !
 ------------------------------------------------------------------------
 !       d1          1.5253   -DE/DX =    0.0084                        !
 !       a1        109.9783   -DE/DX =    0.0069                        !
 !       t1        120.0003   -DE/DX =    0.0004                        !
 !       d2          1.0881   -DE/DX =    0.0047                        !
 !       a2        110.6881   -DE/DX =    0.0046                        !
 !       t2       -119.9203   -DE/DX =    0.0005                        !
 !       d3          1.0866   -DE/DX =    0.0056                        !
 !       d4          1.0968   -DE/DX =   -0.0009                        !
 !       a3        109.9784   -DE/DX =    0.007                         !
 !       d5          1.0937   -DE/DX =    0.0009                        !
 !       a4        110.0229   -DE/DX =    0.0073                        !
 !       t3        180.0      -DE/DX =    0.0                           !
 !       d6          1.0847   -DE/DX =    0.0068                        !
 !       a5        110.0242   -DE/DX =    0.0073                        !
 !       t4        120.0      -DE/DX =    0.0002                        !
 !       d7          1.0978   -DE/DX =   -0.0017                        !
 !       a6        109.9701   -DE/DX =    0.0071                        !
 !       t5       -120.0      -DE/DX =    0.0002                        !
 ------------------------------------------------------------------------
 GradGradGradGradGradGradGradGradGradGradGradGradGradGradGradGradGradGrad

 Leave Link  103 at Thu May 27 13:55:11 2021, MaxMem=   13107200 cpu:       0.0
 (Enter /programs/64bit/g09/g09-gfortran/bin/l9999.exe)
 1\1\GINC-MOLMOD\Force\RB3LYP\6-31+G(d,p)\C2H6\OSPITE\27-May-2021\1\\#p
  b3lyp/6-31+g(d,p) force nosym\\c2h6 molecule\\0,1\C\C,1,d1\H,1,d2,2,a
 1\H,1,d3,2,a2,3,t1,0\H,1,d4,2,a3,3,t2,0\H,2,d5,1,a4,3,t3,0\H,2,d6,1,a5
 ,6,t4,0\H,2,d7,1,a6,6,t5,0\\d1=1.52532258\a1=109.97828216\t1=120.00029
 313\d2=1.08806186\a2=110.68805953\t2=-119.92031955\d3=1.08655228\d4=1.
 09676065\a3=109.97844168\d5=1.09365789\a4=110.02289294\t3=179.99999825
 \d6=1.08472403\a5=110.02421855\t4=120.00003245\d7=1.09777624\a6=109.97
 007368\t5=-120.00000302\\Version=EM64L-G09RevA.02\HF=-79.8409831\RMSD=
 1.670e-09\RMSF=3.340e-03\Dipole=0.0019276,-0.0056433,-0.0014509\Quadru
 pole=0.2617173,0.2604892,-0.5222065,-0.0026862,0.007819,0.0011396\PG=C
 01 [X(C2H6)]\\@


 At the touch of love, everyone becomves a poet.
                                -- Plato
 Job cpu time:  0 days  0 hours  0 minutes  6.8 seconds.
 File lengths (MBytes):  RWF=      5 Int=      0 D2E=      0 Chk=      1 Scr=      1
 Normal termination of Gaussian 09 at Thu May 27 13:55:11 2021.
