 Entering Gaussian System, Link 0=g09
 Input=c2h6_036.com
 Output=c2h6_036.log
 Initial command:
 /programs/64bit/g09/g09-gfortran/bin/l1.exe /data/scratch/Gau-17779.inp -scrdir=/data/scratch/
 Entering Link 1 = /programs/64bit/g09/g09-gfortran/bin/l1.exe PID=     17780.
  
 Copyright (c) 1988,1990,1992,1993,1995,1998,2003,2009, Gaussian, Inc.
                  All Rights Reserved.
  
 This is part of the Gaussian(R) 09 program.  It is based on
 the Gaussian(R) 03 system (copyright 2003, Gaussian, Inc.),
 the Gaussian(R) 98 system (copyright 1998, Gaussian, Inc.),
 the Gaussian(R) 94 system (copyright 1995, Gaussian, Inc.),
 the Gaussian 92(TM) system (copyright 1992, Gaussian, Inc.),
 the Gaussian 90(TM) system (copyright 1990, Gaussian, Inc.),
 the Gaussian 88(TM) system (copyright 1988, Gaussian, Inc.),
 the Gaussian 86(TM) system (copyright 1986, Carnegie Mellon
 University), and the Gaussian 82(TM) system (copyright 1983,
 Carnegie Mellon University). Gaussian is a federally registered
 trademark of Gaussian, Inc.
  
 This software contains proprietary and confidential information,
 including trade secrets, belonging to Gaussian, Inc.
  
 This software is provided under written license and may be
 used, copied, transmitted, or stored only in accord with that
 written license.
  
 The following legend is applicable only to US Government
 contracts under FAR:
  
                    RESTRICTED RIGHTS LEGEND
  
 Use, reproduction and disclosure by the US Government is
 subject to restrictions as set forth in subparagraphs (a)
 and (c) of the Commercial Computer Software - Restricted
 Rights clause in FAR 52.227-19.
  
 Gaussian, Inc.
 340 Quinnipiac St., Bldg. 40, Wallingford CT 06492
  
  
 ---------------------------------------------------------------
 Warning -- This program may not be used in any manner that
 competes with the business of Gaussian, Inc. or will provide
 assistance to any competitor of Gaussian, Inc.  The licensee
 of this program is prohibited from giving any competitor of
 Gaussian, Inc. access to this program.  By using this program,
 the user acknowledges that Gaussian, Inc. is engaged in the
 business of creating and licensing software in the field of
 computational chemistry and represents and warrants to the
 licensee that it is not a competitor of Gaussian, Inc. and that
 it will not use this program in any manner prohibited above.
 ---------------------------------------------------------------
  

 Cite this work as:
 Gaussian 09, Revision A.02,
 M. J. Frisch, G. W. Trucks, H. B. Schlegel, G. E. Scuseria, 
 M. A. Robb, J. R. Cheeseman, G. Scalmani, V. Barone, B. Mennucci, 
 G. A. Petersson, H. Nakatsuji, M. Caricato, X. Li, H. P. Hratchian, 
 A. F. Izmaylov, J. Bloino, G. Zheng, J. L. Sonnenberg, M. Hada, 
 M. Ehara, K. Toyota, R. Fukuda, J. Hasegawa, M. Ishida, T. Nakajima, 
 Y. Honda, O. Kitao, H. Nakai, T. Vreven, J. A. Montgomery, Jr., 
 J. E. Peralta, F. Ogliaro, M. Bearpark, J. J. Heyd, E. Brothers, 
 K. N. Kudin, V. N. Staroverov, R. Kobayashi, J. Normand, 
 K. Raghavachari, A. Rendell, J. C. Burant, S. S. Iyengar, J. Tomasi, 
 M. Cossi, N. Rega, J. M. Millam, M. Klene, J. E. Knox, J. B. Cross, 
 V. Bakken, C. Adamo, J. Jaramillo, R. Gomperts, R. E. Stratmann, 
 O. Yazyev, A. J. Austin, R. Cammi, C. Pomelli, J. W. Ochterski, 
 R. L. Martin, K. Morokuma, V. G. Zakrzewski, G. A. Voth, 
 P. Salvador, J. J. Dannenberg, S. Dapprich, A. D. Daniels, 
 O. Farkas, J. B. Foresman, J. V. Ortiz, J. Cioslowski, 
 and D. J. Fox, Gaussian, Inc., Wallingford CT, 2009.
 
 ******************************************
 Gaussian 09:  EM64L-G09RevA.02 11-Jun-2009
                27-May-2021 
 ******************************************
 %chk=c2h6_036.chk
 %mem=100MB
 --------------------------------
 #p b3lyp/6-31+g(d,p) force nosym
 --------------------------------
 1/10=7,30=1,38=1/1,3;
 2/12=2,15=1,17=6,18=5,40=1/2;
 3/5=1,6=6,7=111,11=2,16=1,25=1,30=1,71=1,74=-5/1,2,3;
 4//1;
 5/5=2,38=5/2;
 6/7=2,8=2,9=2,10=2,28=1/1;
 7/29=1,30=1/1,2,3,16;
 1/10=7,30=1/3;
 99//99;
 Leave Link    1 at Thu May 27 13:55:26 2021, MaxMem=   13107200 cpu:       0.0
 (Enter /programs/64bit/g09/g09-gfortran/bin/l101.exe)
 -------------
 c2h6 molecule
 -------------
 Symbolic Z-matrix:
 Charge =  0 Multiplicity = 1
 C1
 C2                   1    d1
 H3                   1    d2       2    a1
 H4                   1    d3       2    a2       3    t1       0
 H5                   1    d4       2    a3       3    t2       0
 H6                   2    d5       1    a4       3    t3       0
 H7                   2    d6       1    a5       6    t4       0
 H8                   2    d7       1    a6       6    t5       0
       Variables:
       Constants:
  d1                    1.52352                  
  a1                  111.06889                  
  t1                  120.00063                  
  d2                    1.09177                  
  a2                  111.44909                  
  t2                 -119.82957                  
  d3                    1.08979                  
  d4                    1.09675                  
  a3                  111.06932                  
  d5                    1.09439                  
  a4                  111.16441                  
  t3                  180.                       
  d6                    1.08824                  
  a5                  111.16727                  
  t4                  120.00005                  
  d7                    1.09754                  
  a6                  111.05171                  
  t5                 -119.99997                  
 
 NAtoms=      8 NQM=      8 NQMF=      0 NMic=      0 NMicF=      0 NTot=      8.
                    Isotopes and Nuclear Properties:
 (Nuclear quadrupole moments (NQMom) in fm**2, nuclear magnetic moments (NMagM)
  in nuclear magnetons)

  Atom         1           2           3           4           5           6           7           8
 IAtWgt=          12          12           1           1           1           1           1           1
 AtmWgt=  12.0000000  12.0000000   1.0078250   1.0078250   1.0078250   1.0078250   1.0078250   1.0078250
 NucSpn=           0           0           1           1           1           1           1           1
 AtZEff=   0.0000000   0.0000000   0.0000000   0.0000000   0.0000000   0.0000000   0.0000000   0.0000000
 NQMom=    0.0000000   0.0000000   0.0000000   0.0000000   0.0000000   0.0000000   0.0000000   0.0000000
 NMagM=    0.0000000   0.0000000   2.7928460   2.7928460   2.7928460   2.7928460   2.7928460   2.7928460
 Leave Link  101 at Thu May 27 13:55:26 2021, MaxMem=   13107200 cpu:       0.0
 (Enter /programs/64bit/g09/g09-gfortran/bin/l103.exe)

 GradGradGradGradGradGradGradGradGradGradGradGradGradGradGradGradGradGrad
 Berny optimization.
 Initialization pass.
                       ----------------------------
                       !    Initial Parameters    !
                       ! (Angstroms and Degrees)  !
 ----------------------                            ----------------------
 !      Name          Value   Derivative information (Atomic Units)     !
 ------------------------------------------------------------------------
 !       d1          1.5235   Frozen                                    !
 !       a1        111.0689   Frozen                                    !
 !       t1        120.0006   Frozen                                    !
 !       d2          1.0918   Frozen                                    !
 !       a2        111.4491   Frozen                                    !
 !       t2       -119.8296   Frozen                                    !
 !       d3          1.0898   Frozen                                    !
 !       d4          1.0968   Frozen                                    !
 !       a3        111.0693   Frozen                                    !
 !       d5          1.0944   Frozen                                    !
 !       a4        111.1644   Frozen                                    !
 !       t3        180.0      Frozen                                    !
 !       d6          1.0882   Frozen                                    !
 !       a5        111.1673   Frozen                                    !
 !       t4        120.0001   Frozen                                    !
 !       d7          1.0975   Frozen                                    !
 !       a6        111.0517   Frozen                                    !
 !       t5       -120.0      Frozen                                    !
 ------------------------------------------------------------------------
 Trust Radius=3.00D-01 FncErr=1.00D-07 GrdErr=1.00D-07
 Number of steps in this run=   2 maximum allowed number of steps=   2.
 GradGradGradGradGradGradGradGradGradGradGradGradGradGradGradGradGradGrad

 Leave Link  103 at Thu May 27 13:55:26 2021, MaxMem=   13107200 cpu:       0.0
 (Enter /programs/64bit/g09/g09-gfortran/bin/l202.exe)
                          Input orientation:                          
 ---------------------------------------------------------------------
 Center     Atomic      Atomic             Coordinates (Angstroms)
 Number     Number       Type             X           Y           Z
 ---------------------------------------------------------------------
      1          6           0        0.000000    0.000000    0.000000
      2          6           0        0.000000    0.000000    1.523519
      3          1           0        1.018785    0.000000   -0.392481
      4          1           0       -0.507168   -0.878418   -0.398509
      5          1           0       -0.509077    0.887836   -0.394280
      6          1           0       -1.020573    0.000000    1.918644
      7          1           0        0.507408   -0.878854    1.916473
      8          1           0        0.512144    0.887060    1.917768
 ---------------------------------------------------------------------
                    Distance matrix (angstroms):
                    1          2          3          4          5
     1  C    0.000000
     2  C    1.523519   0.000000
     3  H    1.091771   2.170018   0.000000
     4  H    1.089792   2.173253   1.760734   0.000000
     5  H    1.096754   2.173791   1.767093   1.766260   0.000000
     6  H    2.173192   1.094392   3.082252   2.530692   2.529723
     7  H    2.168575   1.088237   2.522927   2.527549   3.081236
     8  H    2.174167   1.097542   2.526027   3.085619   2.527540
                    6          7          8
     6  H    0.000000
     7  H    1.762701   0.000000
     8  H    1.770903   1.765922   0.000000
 Symmetry turned off by external request.
 Stoichiometry    C2H6
 Framework group  C1[X(C2H6)]
 Deg. of freedom    18
 Full point group                 C1      NOp   1
 Rotational constants (GHZ):     80.4291186     20.0932865     20.0891389
 Leave Link  202 at Thu May 27 13:55:26 2021, MaxMem=   13107200 cpu:       0.0
 (Enter /programs/64bit/g09/g09-gfortran/bin/l301.exe)
 Standard basis: 6-31+G(d,p) (6D, 7F)
 Ernie: Thresh=  0.10000D-02 Tol=  0.10000D-05 Strict=F.
 Integral buffers will be    131072 words long.
 Raffenetti 2 integral format.
 Two-electron integral symmetry is turned off.
    68 basis functions,   106 primitive gaussians,    68 cartesian basis functions
     9 alpha electrons        9 beta electrons
       nuclear repulsion energy        42.2722155166 Hartrees.
 IExCor=  402 DFT=T Ex+Corr=B3LYP ExCW=0 ScaHFX=  0.200000
 ScaDFX=  0.800000  0.720000  1.000000  0.810000 ScalE2=  1.000000  1.000000
 IRadAn=      0 IRanWt=     -1 IRanGd=            0 ICorTp=0
 NAtoms=    8 NActive=    8 NUniq=    8 SFac= 7.50D-01 NAtFMM=   80 NAOKFM=F Big=F
 Leave Link  301 at Thu May 27 13:55:26 2021, MaxMem=   13107200 cpu:       0.0
 (Enter /programs/64bit/g09/g09-gfortran/bin/l302.exe)
 NPDir=0 NMtPBC=     1 NCelOv=     1 NCel=       1 NClECP=     1 NCelD=      1
         NCelK=      1 NCelE2=     1 NClLst=     1 CellRange=     0.0.
 One-electron integrals computed using PRISM.
 NBasis=    68 RedAO= T  NBF=    68
 NBsUse=    68 1.00D-06 NBFU=    68
 Precomputing XC quadrature grid using
 IXCGrd= 2 IRadAn=           0 IRanWt=          -1 IRanGd=           0 AccXCQ= 1.00D-10.
 NRdTot=     510 NPtTot=       65100 NUsed=       68787 NTot=       68819
 NSgBfM=    68    68    68    68    68 NAtAll=     8     8.
 Leave Link  302 at Thu May 27 13:55:26 2021, MaxMem=   13107200 cpu:       0.1
 (Enter /programs/64bit/g09/g09-gfortran/bin/l303.exe)
 DipDrv:  MaxL=1.
 Leave Link  303 at Thu May 27 13:55:26 2021, MaxMem=   13107200 cpu:       0.0
 (Enter /programs/64bit/g09/g09-gfortran/bin/l401.exe)
 Harris functional with IExCor=  402 diagonalized for initial guess.
 ExpMin= 4.38D-02 ExpMax= 3.05D+03 ExpMxC= 4.57D+02 IAcc=2 IRadAn=         0 AccDes= 0.00D+00
 HarFok:  IExCor=  402 AccDes= 0.00D+00 IRadAn=         0 IDoV= 1
 ScaDFX=  1.000000  1.000000  1.000000  1.000000
 FoFCou: FMM=F IPFlag=           0 FMFlag=      100000 FMFlg1=           0
         NFxFlg=           0 DoJE=T BraDBF=F KetDBF=T FulRan=T
         Omega=  0.000000  0.000000  1.000000  0.000000  0.000000 ICntrl=     500 IOpCl=  0
         NMat0=    1 NMatS0=    1 NMatT0=    0 NMatD0=    1 NMtDS0=    0 NMtDT0=    0
         I1Cent=           4 NGrid=           0.
 Symmetry not used in FoFCou.
 Harris En= -79.9003740939658    
 Leave Link  401 at Thu May 27 13:55:27 2021, MaxMem=   13107200 cpu:       0.6
 (Enter /programs/64bit/g09/g09-gfortran/bin/l502.exe)
 Closed shell SCF:
 Requested convergence on RMS density matrix=1.00D-08 within 128 cycles.
 Requested convergence on MAX density matrix=1.00D-06.
 Requested convergence on             energy=1.00D-06.
 No special actions if energy rises.
 Using DIIS extrapolation, IDIIS=  1040.
 Two-electron integral symmetry not used.
        68702 words used for storage of precomputed grid.
 Keep R1 ints in memory in canonical form, NReq=3743087.
 IEnd=      101552 IEndB=      101552 NGot=    13107200 MDV=    10273922
 LenX=    10273922 LenY=    10268857
 Symmetry not used in FoFDir.
 MinBra= 0 MaxBra= 2 Meth= 1.
 IRaf=       0 NMat=   1 IRICut=       1 DoRegI=T DoRafI=F ISym2E= 0 JSym2E=0.

 Cycle   1  Pass 1  IDiag  1:
 E= -79.7076980788106    
 DIIS: error= 4.05D-02 at cycle   1 NSaved=   1.
 NSaved= 1 IEnMin= 1 EnMin= -79.7076980788106     IErMin= 1 ErrMin= 4.05D-02
 ErrMax= 4.05D-02 EMaxC= 1.00D-01 BMatC= 1.18D-01 BMatP= 1.18D-01
 IDIUse=3 WtCom= 5.95D-01 WtEn= 4.05D-01
 Coeff-Com:  0.100D+01
 Coeff-En:   0.100D+01
 Coeff:      0.100D+01
 Gap=     0.278 Goal=   None    Shift=    0.000
 GapD=    0.278 DampG=1.000 DampE=0.500 DampFc=0.5000 IDamp=-1.
 Damping current iteration by 5.00D-01
 RMSDP=9.71D-03 MaxDP=1.42D-01              OVMax= 2.01D-01

 Cycle   2  Pass 1  IDiag  1:
 E= -79.7630435836680     Delta-E=       -0.055345504857 Rises=F Damp=T
 DIIS: error= 1.20D-02 at cycle   2 NSaved=   2.
 NSaved= 2 IEnMin= 2 EnMin= -79.7630435836680     IErMin= 2 ErrMin= 1.20D-02
 ErrMax= 1.20D-02 EMaxC= 1.00D-01 BMatC= 4.73D-03 BMatP= 1.18D-01
 IDIUse=3 WtCom= 8.80D-01 WtEn= 1.20D-01
 Coeff-Com:  0.111D+00 0.889D+00
 Coeff-En:   0.189D+00 0.811D+00
 Coeff:      0.120D+00 0.880D+00
 Gap=     0.385 Goal=   None    Shift=    0.000
 RMSDP=1.31D-03 MaxDP=1.06D-02 DE=-5.53D-02 OVMax= 1.24D-01

 Cycle   3  Pass 1  IDiag  1:
 E= -79.8413545157520     Delta-E=       -0.078310932084 Rises=F Damp=F
 DIIS: error= 2.37D-03 at cycle   3 NSaved=   3.
 NSaved= 3 IEnMin= 3 EnMin= -79.8413545157520     IErMin= 3 ErrMin= 2.37D-03
 ErrMax= 2.37D-03 EMaxC= 1.00D-01 BMatC= 1.71D-04 BMatP= 4.73D-03
 IDIUse=3 WtCom= 9.76D-01 WtEn= 2.37D-02
 Coeff-Com:  0.865D-02 0.114D+00 0.877D+00
 Coeff-En:   0.000D+00 0.000D+00 0.100D+01
 Coeff:      0.844D-02 0.111D+00 0.880D+00
 Gap=     0.362 Goal=   None    Shift=    0.000
 RMSDP=2.07D-04 MaxDP=2.15D-03 DE=-7.83D-02 OVMax= 4.64D-03

 Cycle   4  Pass 1  IDiag  1:
 E= -79.8415024592262     Delta-E=       -0.000147943474 Rises=F Damp=F
 DIIS: error= 7.00D-04 at cycle   4 NSaved=   4.
 NSaved= 4 IEnMin= 4 EnMin= -79.8415024592262     IErMin= 4 ErrMin= 7.00D-04
 ErrMax= 7.00D-04 EMaxC= 1.00D-01 BMatC= 1.06D-05 BMatP= 1.71D-04
 IDIUse=3 WtCom= 9.93D-01 WtEn= 7.00D-03
 Coeff-Com: -0.370D-03-0.594D-02 0.187D+00 0.819D+00
 Coeff-En:   0.000D+00 0.000D+00 0.000D+00 0.100D+01
 Coeff:     -0.367D-03-0.590D-02 0.186D+00 0.821D+00
 Gap=     0.362 Goal=   None    Shift=    0.000
 RMSDP=4.34D-05 MaxDP=4.08D-04 DE=-1.48D-04 OVMax= 1.19D-03

 Cycle   5  Pass 1  IDiag  1:
 E= -79.8415124645838     Delta-E=       -0.000010005358 Rises=F Damp=F
 DIIS: error= 2.59D-05 at cycle   5 NSaved=   5.
 NSaved= 5 IEnMin= 5 EnMin= -79.8415124645838     IErMin= 5 ErrMin= 2.59D-05
 ErrMax= 2.59D-05 EMaxC= 1.00D-01 BMatC= 2.74D-08 BMatP= 1.06D-05
 IDIUse=1 WtCom= 1.00D+00 WtEn= 0.00D+00
 Coeff-Com:  0.403D-03-0.489D-03-0.508D-02-0.928D-02 0.101D+01
 Coeff:      0.403D-03-0.489D-03-0.508D-02-0.928D-02 0.101D+01
 Gap=     0.362 Goal=   None    Shift=    0.000
 RMSDP=2.52D-06 MaxDP=5.07D-05 DE=-1.00D-05 OVMax= 8.44D-05

 Cycle   6  Pass 1  IDiag  1:
 E= -79.8415124943398     Delta-E=       -0.000000029756 Rises=F Damp=F
 DIIS: error= 8.95D-06 at cycle   6 NSaved=   6.
 NSaved= 6 IEnMin= 6 EnMin= -79.8415124943398     IErMin= 6 ErrMin= 8.95D-06
 ErrMax= 8.95D-06 EMaxC= 1.00D-01 BMatC= 2.25D-09 BMatP= 2.74D-08
 IDIUse=1 WtCom= 1.00D+00 WtEn= 0.00D+00
 Coeff-Com:  0.175D-03-0.180D-03-0.371D-02-0.103D-01 0.446D+00 0.568D+00
 Coeff:      0.175D-03-0.180D-03-0.371D-02-0.103D-01 0.446D+00 0.568D+00
 Gap=     0.362 Goal=   None    Shift=    0.000
 RMSDP=6.46D-07 MaxDP=1.33D-05 DE=-2.98D-08 OVMax= 1.84D-05

 Cycle   7  Pass 1  IDiag  1:
 E= -79.8415124964043     Delta-E=       -0.000000002064 Rises=F Damp=F
 DIIS: error= 2.13D-06 at cycle   7 NSaved=   7.
 NSaved= 7 IEnMin= 7 EnMin= -79.8415124964043     IErMin= 7 ErrMin= 2.13D-06
 ErrMax= 2.13D-06 EMaxC= 1.00D-01 BMatC= 1.32D-10 BMatP= 2.25D-09
 IDIUse=1 WtCom= 1.00D+00 WtEn= 0.00D+00
 Coeff-Com: -0.722D-05 0.138D-05-0.312D-03-0.114D-02-0.220D-02 0.191D+00
 Coeff-Com:  0.813D+00
 Coeff:     -0.722D-05 0.138D-05-0.312D-03-0.114D-02-0.220D-02 0.191D+00
 Coeff:      0.813D+00
 Gap=     0.362 Goal=   None    Shift=    0.000
 RMSDP=1.41D-07 MaxDP=2.69D-06 DE=-2.06D-09 OVMax= 3.64D-06

 Cycle   8  Pass 1  IDiag  1:
 E= -79.8415124965351     Delta-E=       -0.000000000131 Rises=F Damp=F
 DIIS: error= 1.18D-07 at cycle   8 NSaved=   8.
 NSaved= 8 IEnMin= 8 EnMin= -79.8415124965351     IErMin= 8 ErrMin= 1.18D-07
 ErrMax= 1.18D-07 EMaxC= 1.00D-01 BMatC= 6.32D-13 BMatP= 1.32D-10
 IDIUse=1 WtCom= 1.00D+00 WtEn= 0.00D+00
 Coeff-Com: -0.317D-05 0.149D-05-0.720D-04-0.304D-03-0.343D-02 0.556D-01
 Coeff-Com:  0.250D+00 0.698D+00
 Coeff:     -0.317D-05 0.149D-05-0.720D-04-0.304D-03-0.343D-02 0.556D-01
 Coeff:      0.250D+00 0.698D+00
 Gap=     0.362 Goal=   None    Shift=    0.000
 RMSDP=1.71D-08 MaxDP=1.59D-07 DE=-1.31D-10 OVMax= 2.98D-07

 Cycle   9  Pass 1  IDiag  1:
 E= -79.8415124965358     Delta-E=       -0.000000000001 Rises=F Damp=F
 DIIS: error= 1.31D-08 at cycle   9 NSaved=   9.
 NSaved= 9 IEnMin= 9 EnMin= -79.8415124965358     IErMin= 9 ErrMin= 1.31D-08
 ErrMax= 1.31D-08 EMaxC= 1.00D-01 BMatC= 9.96D-15 BMatP= 6.32D-13
 IDIUse=1 WtCom= 1.00D+00 WtEn= 0.00D+00
 Coeff-Com:  0.165D-07 0.195D-06 0.904D-05 0.166D-04-0.464D-03-0.352D-02
 Coeff-Com: -0.129D-01 0.740D-01 0.943D+00
 Coeff:      0.165D-07 0.195D-06 0.904D-05 0.166D-04-0.464D-03-0.352D-02
 Coeff:     -0.129D-01 0.740D-01 0.943D+00
 Gap=     0.362 Goal=   None    Shift=    0.000
 RMSDP=1.95D-09 MaxDP=1.62D-08 DE=-7.67D-13 OVMax= 4.77D-08

 SCF Done:  E(RB3LYP) =  -79.8415124965     A.U. after    9 cycles
             Convg  =    0.1953D-08             -V/T =  2.0106
 KE= 7.900664553696D+01 PE=-2.683064024274D+02 EE= 6.718602887731D+01
 Leave Link  502 at Thu May 27 13:55:32 2021, MaxMem=   13107200 cpu:       4.8
 (Enter /programs/64bit/g09/g09-gfortran/bin/l601.exe)
 Copying SCF densities to generalized density rwf, IOpCl= 0 IROHF=0.

 **********************************************************************

            Population analysis using the SCF density.

 **********************************************************************

 Alpha  occ. eigenvalues --  -10.17650 -10.17618  -0.75525  -0.61675  -0.43647
 Alpha  occ. eigenvalues --   -0.43625  -0.36888  -0.34437  -0.34417
 Alpha virt. eigenvalues --    0.01759   0.03080   0.05344   0.05347   0.08032
 Alpha virt. eigenvalues --    0.08980   0.08982   0.14306   0.19548   0.19587
 Alpha virt. eigenvalues --    0.19956   0.19990   0.25816   0.29801   0.32869
 Alpha virt. eigenvalues --    0.61658   0.64332   0.64343   0.66916   0.66951
 Alpha virt. eigenvalues --    0.70007   0.91548   0.91576   0.96923   0.96965
 Alpha virt. eigenvalues --    1.00484   1.10229   1.11228   1.32356   1.32409
 Alpha virt. eigenvalues --    1.46321   1.67734   1.67835   1.90202   2.05208
 Alpha virt. eigenvalues --    2.05287   2.10094   2.10346   2.11394   2.11439
 Alpha virt. eigenvalues --    2.26981   2.27059   2.38232   2.47949   2.48118
 Alpha virt. eigenvalues --    2.69399   2.78711   2.80255   2.80421   2.90833
 Alpha virt. eigenvalues --    2.90956   3.21943   3.26812   3.39295   3.39425
 Alpha virt. eigenvalues --    3.52453   3.52647   4.33222   4.58451
          Condensed to atoms (all electrons):
              1          2          3          4          5          6
     1  C    5.087077   0.267617   0.405339   0.404875   0.405458  -0.045412
     2  C    0.267617   5.086264  -0.045534  -0.044597  -0.045757   0.405178
     3  H    0.405339  -0.045534   0.558820  -0.029877  -0.029528   0.004687
     4  H    0.404875  -0.044597  -0.029877   0.557921  -0.029529  -0.004282
     5  H    0.405458  -0.045757  -0.029528  -0.029529   0.559236  -0.004309
     6  H   -0.045412   0.405178   0.004687  -0.004282  -0.004309   0.558783
     7  H   -0.045141   0.405117  -0.004342  -0.004264   0.004689  -0.029739
     8  H   -0.045909   0.405641  -0.004334   0.004648  -0.004342  -0.029378
              7          8
     1  C   -0.045141  -0.045909
     2  C    0.405117   0.405641
     3  H   -0.004342  -0.004334
     4  H   -0.004264   0.004648
     5  H    0.004689  -0.004342
     6  H   -0.029739  -0.029378
     7  H    0.557898  -0.029578
     8  H   -0.029578   0.559209
 Mulliken atomic charges:
              1
     1  C   -0.433903
     2  C   -0.433929
     3  H    0.144769
     4  H    0.145105
     5  H    0.144082
     6  H    0.144473
     7  H    0.145360
     8  H    0.144044
 Sum of Mulliken atomic charges =   0.00000
 Mulliken charges with hydrogens summed into heavy atoms:
              1
     1  C    0.000052
     2  C   -0.000052
 Sum of Mulliken charges with hydrogens summed into heavy atoms =   0.00000
 Electronic spatial extent (au):  <R**2>=            147.1914
 Charge=              0.0000 electrons
 Dipole moment (field-independent basis, Debye):
    X=              0.0033    Y=             -0.0098    Z=             -0.0013  Tot=              0.0104
 Quadrupole moment (field-independent basis, Debye-Ang):
   XX=            -15.0489   YY=            -15.0429   ZZ=            -15.8085
   XY=              0.0005   XZ=              0.0042   YZ=             -0.0043
 Traceless Quadrupole moment (field-independent basis, Debye-Ang):
   XX=              0.2512   YY=              0.2572   ZZ=             -0.5084
   XY=              0.0005   XZ=              0.0042   YZ=             -0.0043
 Octapole moment (field-independent basis, Debye-Ang**2):
  XXX=              0.0046  YYY=             -0.0792  ZZZ=            -36.1354  XYY=              0.0054
  XXY=             -0.0285  XXZ=            -11.4569  XZZ=              0.0026  YZZ=             -0.0560
  YYZ=            -11.4608  XYZ=              0.0033
 Hexadecapole moment (field-independent basis, Debye-Ang**3):
 XXXX=            -31.2257 YYYY=            -31.2288 ZZZZ=           -153.0744 XXXY=             -0.0066
 XXXZ=             -1.2475 YYYX=             -0.0077 YYYZ=             -0.0714 ZZZX=              0.0142
 ZZZY=             -0.1207 XXYY=            -10.4115 XXZZ=            -29.2715 YYZZ=            -29.2681
 XXYZ=             -0.0229 YYXZ=              1.2641 ZZXY=              0.0090
 N-N= 4.227221551664D+01 E-N=-2.683064028014D+02  KE= 7.900664553696D+01
 No NMR shielding tensors so no spin-rotation constants.
 Leave Link  601 at Thu May 27 13:55:32 2021, MaxMem=   13107200 cpu:       0.0
 (Enter /programs/64bit/g09/g09-gfortran/bin/l701.exe)
 Compute integral first derivatives.
 ... and contract with generalized density number  0.
 Leave Link  701 at Thu May 27 13:55:32 2021, MaxMem=   13107200 cpu:       0.0
 (Enter /programs/64bit/g09/g09-gfortran/bin/l702.exe)
 L702 exits ... SP integral derivatives will be done elsewhere.
 Leave Link  702 at Thu May 27 13:55:32 2021, MaxMem=   13107200 cpu:       0.0
 (Enter /programs/64bit/g09/g09-gfortran/bin/l703.exe)
 Compute integral first derivatives, UseDBF=F ICtDFT=           0.
 Integral derivatives from FoFDir, PRISM(SPDF).
 Calling FoFJK, ICntrl=      2127 FMM=F ISym2X=0 I1Cent= 0 IOpClX= 0 NMat=1 NMatS=1 NMatT=0.
 FoFCou: FMM=F IPFlag=           0 FMFlag=      100000 FMFlg1=         800
         NFxFlg=           0 DoJE=F BraDBF=F KetDBF=F FulRan=T
         Omega=  0.000000  0.000000  1.000000  0.000000  0.000000 ICntrl=    2127 IOpCl=  0
         NMat0=    1 NMatS0=    1 NMatT0=    0 NMatD0=    1 NMtDS0=    0 NMtDT0=    0
         I1Cent=           0 NGrid=           0.
 Symmetry not used in FoFCou.
 Leave Link  703 at Thu May 27 13:55:33 2021, MaxMem=   13107200 cpu:       1.1
 (Enter /programs/64bit/g09/g09-gfortran/bin/l716.exe)
 Dipole        = 1.29347485D-03-3.85346401D-03-5.12457828D-04
 -------------------------------------------------------------------
 Center     Atomic                   Forces (Hartrees/Bohr)
 Number     Number              X              Y              Z
 -------------------------------------------------------------------
      1        6          -0.000498390    0.003793051   -0.001759895
      2        6          -0.001086765    0.004314952    0.001755079
      3        1           0.002160140    0.000156938   -0.001611573
      4        1          -0.001888574   -0.002864908   -0.001648866
      5        1           0.000390917   -0.000794576   -0.000535018
      6        1          -0.000507143    0.000189341    0.001012099
      7        1           0.002202234   -0.003617096    0.002438779
      8        1          -0.000772419   -0.001177700    0.000349394
 -------------------------------------------------------------------
 Cartesian Forces:  Max     0.004314952 RMS     0.001944742
 -----------------------------------------------------------------------------------------------
                       Internal Coordinate Forces (Hartree/Bohr or radian)
  Cent   Atom   N1       Length/X         N2         Alpha/Y        N3         Beta/Z          J
 -----------------------------------------------------------------------------------------------
      1  C 
      2  C        1   0.005555(     1)
      3  H        1   0.002595(     2)      2   0.001501(     8)
      4  H        1   0.003791(     3)      2   0.000581(     9)      3   0.000389(    14)     0
      5  H        1  -0.000632(     4)      2   0.001693(    10)      3  -0.000109(    15)     0
      6  H        2   0.000838(     5)      1   0.001573(    11)      3  -0.000021(    16)     0
      7  H        2   0.004829(     6)      1   0.001533(    12)      6   0.000189(    17)     0
      8  H        2  -0.001187(     7)      1   0.001724(    13)      6   0.000155(    18)     0
 -----------------------------------------------------------------------------------------------
 Internal  Forces:  Max     0.005555352 RMS     0.002251815
 Force constants in Cartesian coordinates: 
                1             2             3             4             5 
      1  0.648743D+00
      2  0.259669D-02  0.648458D+00
      3  0.660254D-04  0.319702D-02  0.645488D+00
      4 -0.924967D-01 -0.646986D-04 -0.123241D-03  0.647348D+00
      5 -0.647280D-04 -0.926631D-01  0.542318D-04 -0.332701D-02  0.648912D+00
      6  0.434251D-04 -0.171003D-03 -0.300301D+00  0.341824D-03 -0.314343D-02
      7 -0.306877D+00 -0.567774D-04  0.891115D-01  0.972541D-02 -0.142424D-05
      8  0.122103D-04 -0.764075D-01 -0.171186D-03  0.688419D-05  0.135781D-02
      9  0.101781D+00 -0.147380D-03 -0.114776D+00  0.252448D-01 -0.369697D-05
     10 -0.134358D+00 -0.998463D-01 -0.454684D-01  0.353443D-02  0.369060D-02
     11 -0.100020D+00 -0.249979D+00 -0.788111D-01  0.368306D-02  0.778118D-02
     12 -0.518926D-01 -0.898013D-01 -0.116781D+00 -0.126166D-01 -0.218486D-01
     13 -0.131662D+00  0.974208D-01 -0.435859D-01  0.340969D-02 -0.359748D-02
     14  0.975250D-01 -0.246050D+00  0.757310D-01 -0.359826D-02  0.761758D-02
     15 -0.499549D-01  0.867517D-01 -0.113630D+00 -0.125050D-01  0.217981D-01
     16  0.974433D-02  0.000000D+00  0.000000D+00 -0.303946D+00  0.224723D-04
     17 -0.120268D-04  0.136058D-02  0.000000D+00 -0.194460D-03 -0.762945D-01
     18  0.251687D-01  0.000000D+00  0.000000D+00  0.101131D+00  0.580229D-04
     19  0.348735D-02 -0.364994D-02  0.000000D+00 -0.135291D+00  0.100935D+00
     20 -0.364491D-02  0.769376D-02  0.000000D+00  0.100993D+00 -0.251913D+00
     21 -0.126551D-01  0.219204D-01  0.000000D+00 -0.515935D-01  0.894240D-01
     22  0.341843D-02  0.360013D-02  0.000000D+00 -0.132284D+00 -0.976577D-01
     23  0.360731D-02  0.758806D-02  0.000000D+00 -0.974985D-01 -0.244798D+00
     24 -0.125571D-01 -0.217499D-01  0.000000D+00 -0.498794D-01 -0.863386D-01
                6             7             8             9            10 
      6  0.643879D+00
      7  0.000000D+00  0.308988D+00
      8  0.000000D+00  0.418640D-04  0.582982D-01
      9  0.000000D+00 -0.963007D-01  0.108669D-03  0.961147D-01
     10  0.000000D+00 -0.597154D-02 -0.267087D-01 -0.155006D-01  0.121313D+00
     11  0.000000D+00  0.179990D-02  0.835563D-02  0.467210D-02  0.108765D+00
     12  0.000000D+00  0.363230D-02  0.155732D-01  0.942857D-02  0.492176D-01
     13  0.000000D+00 -0.586532D-02  0.266576D-01 -0.152249D-01  0.154905D-01
     14  0.000000D+00 -0.178356D-02  0.839707D-02 -0.462969D-02  0.141008D-01
     15  0.000000D+00  0.355683D-02 -0.155107D-01  0.923266D-02  0.117514D-01
     16  0.885466D-01  0.000000D+00  0.000000D+00  0.000000D+00  0.000000D+00
     17  0.142297D-03  0.000000D+00  0.122498D-02  0.000000D+00  0.106553D-02
     18 -0.114392D+00  0.000000D+00  0.000000D+00  0.000000D+00  0.000000D+00
     19 -0.452996D-01  0.000000D+00 -0.106688D-02  0.000000D+00 -0.928014D-03
     20  0.785690D-01  0.000000D+00 -0.615968D-03  0.000000D+00 -0.535790D-03
     21 -0.115955D+00  0.000000D+00  0.000000D+00  0.000000D+00  0.000000D+00
     22 -0.436323D-01  0.000000D+00  0.105702D-02  0.000000D+00  0.919431D-03
     23 -0.753969D-01  0.000000D+00 -0.610268D-03  0.000000D+00 -0.530833D-03
     24 -0.113230D+00  0.000000D+00  0.000000D+00  0.000000D+00  0.000000D+00
               11            12            13            14            15 
     11  0.246916D+00
     12  0.852028D-01  0.979204D-01
     13 -0.142331D-01  0.116593D-01  0.118618D+00
     14 -0.130745D-01  0.108739D-01 -0.106249D+00  0.243110D+00
     15 -0.110638D-01  0.943187D-02  0.471516D-01 -0.819753D-01  0.949651D-01
     16  0.000000D+00  0.000000D+00  0.000000D+00  0.000000D+00  0.000000D+00
     17 -0.615201D-03  0.000000D+00 -0.105786D-02 -0.606566D-03  0.000000D+00
     18  0.000000D+00  0.000000D+00  0.000000D+00  0.000000D+00  0.000000D+00
     19  0.535803D-03  0.000000D+00  0.921330D-03  0.528282D-03  0.000000D+00
     20  0.309347D-03  0.000000D+00  0.531931D-03  0.305004D-03  0.000000D+00
     21  0.000000D+00  0.000000D+00  0.000000D+00  0.000000D+00  0.000000D+00
     22 -0.530847D-03  0.000000D+00 -0.912808D-03 -0.523396D-03  0.000000D+00
     23  0.306484D-03  0.000000D+00  0.527009D-03  0.302182D-03  0.000000D+00
     24  0.000000D+00  0.000000D+00  0.000000D+00  0.000000D+00  0.000000D+00
               16            17            18            19            20 
     16  0.306023D+00
     17 -0.104580D-04  0.581015D-01
     18 -0.957676D-01 -0.269895D-04  0.957411D-01
     19 -0.594533D-02  0.267056D-01 -0.153563D-01  0.122142D+00
     20 -0.180899D-02  0.842847D-02 -0.467246D-02 -0.109769D+00  0.248868D+00
     21  0.363114D-02 -0.156335D-01  0.937892D-02  0.489449D-01 -0.848273D-01
     22 -0.587555D-02 -0.264963D-01 -0.151760D-01  0.156135D-01  0.142335D-01
     23  0.179679D-02  0.840069D-02  0.464096D-02 -0.142193D-01 -0.130758D-01
     24  0.358978D-02  0.155181D-01  0.927208D-02  0.117110D-01  0.109308D-01
               21            22            23            24 
     21  0.972512D-01
     22  0.116726D-01  0.119121D+00
     23 -0.108836D-01  0.106318D+00  0.241887D+00
     24  0.932507D-02  0.471358D-01  0.816395D-01  0.946333D-01
 Force constants in internal coordinates: 
                1             2             3             4             5 
      1  0.300301D+00
      2  0.000000D+00  0.346088D+00
      3  0.000000D+00  0.000000D+00  0.348367D+00
      4  0.000000D+00  0.000000D+00  0.000000D+00  0.340436D+00
      5  0.000000D+00  0.000000D+00  0.000000D+00  0.000000D+00  0.343100D+00
      6  0.000000D+00  0.000000D+00  0.000000D+00  0.000000D+00  0.000000D+00
      7  0.000000D+00  0.000000D+00  0.000000D+00  0.000000D+00  0.000000D+00
      8  0.000000D+00  0.000000D+00  0.000000D+00  0.000000D+00  0.000000D+00
      9  0.000000D+00  0.000000D+00  0.000000D+00  0.000000D+00  0.000000D+00
     10  0.000000D+00  0.000000D+00  0.000000D+00  0.000000D+00  0.000000D+00
     11  0.000000D+00  0.000000D+00  0.000000D+00  0.000000D+00  0.000000D+00
     12  0.000000D+00  0.000000D+00  0.000000D+00  0.000000D+00  0.000000D+00
     13  0.000000D+00  0.000000D+00  0.000000D+00  0.000000D+00  0.000000D+00
     14  0.000000D+00  0.000000D+00  0.000000D+00  0.000000D+00  0.000000D+00
     15  0.000000D+00  0.000000D+00  0.000000D+00  0.000000D+00  0.000000D+00
     16  0.000000D+00  0.000000D+00  0.000000D+00  0.000000D+00  0.000000D+00
     17  0.000000D+00  0.000000D+00  0.000000D+00  0.000000D+00  0.000000D+00
     18  0.000000D+00  0.000000D+00  0.000000D+00  0.000000D+00  0.000000D+00
                6             7             8             9            10 
      6  0.350171D+00
      7  0.000000D+00  0.339554D+00
      8  0.000000D+00  0.000000D+00  0.251204D+00
      9  0.000000D+00  0.000000D+00  0.461252D-01  0.251339D+00
     10  0.000000D+00  0.000000D+00  0.453383D-01  0.463520D-01  0.251427D+00
     11  0.000000D+00  0.000000D+00  0.000000D+00  0.000000D+00  0.000000D+00
     12  0.000000D+00  0.000000D+00  0.000000D+00  0.000000D+00  0.000000D+00
     13  0.000000D+00  0.000000D+00  0.000000D+00  0.000000D+00  0.000000D+00
     14  0.000000D+00  0.000000D+00 -0.667893D-01  0.900304D-04  0.668773D-01
     15  0.000000D+00  0.000000D+00  0.663236D-01 -0.664292D-01 -0.550353D-03
     16  0.000000D+00  0.000000D+00  0.000000D+00  0.000000D+00  0.000000D+00
     17  0.000000D+00  0.000000D+00  0.000000D+00  0.000000D+00  0.000000D+00
     18  0.000000D+00  0.000000D+00  0.000000D+00  0.000000D+00  0.000000D+00
               11            12            13            14            15 
     11  0.250907D+00
     12  0.458683D-01  0.250907D+00
     13  0.456979D-01  0.457015D-01  0.250999D+00
     14  0.000000D+00  0.000000D+00  0.000000D+00  0.215008D+00
     15  0.000000D+00  0.000000D+00  0.000000D+00 -0.100601D+00  0.215911D+00
     16 -0.139784D-05  0.000000D+00  0.000000D+00  0.136451D-01  0.136451D-01
     17 -0.664948D-01 -0.110856D-03  0.665173D-01  0.454835D-02  0.454835D-02
     18  0.663780D-01 -0.663783D-01 -0.458368D-05  0.454835D-02  0.454835D-02
               16            17            18 
     16  0.409352D-01
     17  0.136417D-01  0.216102D+00
     18  0.136495D-01 -0.101336D+00  0.216326D+00
 Leave Link  716 at Thu May 27 13:55:33 2021, MaxMem=   13107200 cpu:       0.0
 (Enter /programs/64bit/g09/g09-gfortran/bin/l103.exe)

 GradGradGradGradGradGradGradGradGradGradGradGradGradGradGradGradGradGrad
 Berny optimization.
 Search for a local minimum.
 Step number   1 out of a maximum of    2
 All quantities printed in internal units (Hartrees-Bohrs-Radians)
 Second derivative matrix not updated -- first step.
 The second derivative matrix:
                          d1        a1        t1        d2        a2
           d1           0.30030
           a1          -0.00000   0.25120
           t1           0.00000  -0.06679   0.21501
           d2          -0.00000   0.00000   0.00000   0.34609
           a2          -0.00000   0.04613   0.00009  -0.00000   0.25134
           t2           0.00000   0.06632  -0.10060  -0.00000  -0.06643
           d3           0.00000   0.00000  -0.00000   0.00000   0.00000
           d4          -0.00000  -0.00000  -0.00000   0.00000  -0.00000
           a3          -0.00000   0.04534   0.06688  -0.00000   0.04635
           d5          -0.00000  -0.00000  -0.00000   0.00000  -0.00000
           a4          -0.00000  -0.00000   0.00000   0.00000   0.00000
           t3           0.00000   0.00000   0.01365   0.00000  -0.00000
           d6          -0.00000   0.00000  -0.00000   0.00000   0.00000
           a5          -0.00000  -0.00000   0.00000  -0.00000  -0.00000
           t4          -0.00000   0.00000   0.00455  -0.00000  -0.00000
           d7          -0.00000   0.00000  -0.00000  -0.00000  -0.00000
           a6          -0.00000  -0.00000   0.00000   0.00000   0.00000
           t5           0.00000   0.00000   0.00455   0.00000  -0.00000
                          t2        d3        d4        a3        d5
           t2           0.21591
           d3          -0.00000   0.34837
           d4           0.00000   0.00000   0.34044
           a3          -0.00055   0.00000  -0.00000   0.25143
           d5          -0.00000   0.00000   0.00000  -0.00000   0.34310
           a4           0.00000  -0.00000  -0.00000   0.00000   0.00000
           t3           0.01365   0.00000  -0.00000  -0.00000  -0.00000
           d6          -0.00000  -0.00000  -0.00000   0.00000  -0.00000
           a5           0.00000   0.00000   0.00000  -0.00000   0.00000
           t4           0.00455  -0.00000  -0.00000  -0.00000  -0.00000
           d7          -0.00000   0.00000   0.00000  -0.00000   0.00000
           a6           0.00000  -0.00000  -0.00000   0.00000   0.00000
           t5           0.00455   0.00000   0.00000  -0.00000   0.00000
                          a4        t3        d6        a5        t4
           a4           0.25091
           t3          -0.00000   0.04094
           d6          -0.00000  -0.00000   0.35017
           a5           0.04587   0.00000  -0.00000   0.25091
           t4          -0.06649   0.01364  -0.00000  -0.00011   0.21610
           d7           0.00000  -0.00000  -0.00000  -0.00000  -0.00000
           a6           0.04570   0.00000   0.00000   0.04570   0.06652
           t5           0.06638   0.01365   0.00000  -0.06638  -0.10134
                          d7        a6        t5
           d7           0.33955
           a6           0.00000   0.25100
           t5          -0.00000  -0.00000   0.21633
     Eigenvalues --- 1000.000001000.000001000.000001000.000001000.00000
     Eigenvalues --- 1000.000001000.000001000.000001000.000001000.00000
     Eigenvalues --- 1000.000001000.000001000.000001000.000001000.00000
     Eigenvalues --- 1000.000001000.000001000.00000
 Angle between quadratic step and forces=  90.00 degrees.
 Linear search not attempted -- first point.
 Variable       Old X    -DE/DX   Delta X   Delta X   Delta X     New X
                                 (Linear)    (Quad)   (Total)
    d1        2.87903   0.00556   0.00000   0.00000   0.00000   2.87903
    a1        1.93852   0.00150   0.00000   0.00000   0.00000   1.93852
    t1        2.09441   0.00039   0.00000   0.00000   0.00000   2.09441
    d2        2.06315   0.00260   0.00000   0.00000   0.00000   2.06315
    a2        1.94515   0.00058   0.00000   0.00000   0.00000   1.94515
    t2       -2.09142  -0.00011   0.00000   0.00000   0.00000  -2.09142
    d3        2.05941   0.00379   0.00000   0.00000   0.00000   2.05941
    d4        2.07256  -0.00063   0.00000   0.00000   0.00000   2.07256
    a3        1.93853   0.00169   0.00000   0.00000   0.00000   1.93853
    d5        2.06810   0.00084   0.00000   0.00000   0.00000   2.06810
    a4        1.94018   0.00157   0.00000   0.00000   0.00000   1.94018
    t3        3.14159  -0.00002   0.00000   0.00000   0.00000   3.14159
    d6        2.05647   0.00483   0.00000   0.00000   0.00000   2.05647
    a5        1.94023   0.00153   0.00000   0.00000   0.00000   1.94023
    t4        2.09440   0.00019   0.00000   0.00000   0.00000   2.09440
    d7        2.07405  -0.00119   0.00000   0.00000   0.00000   2.07405
    a6        1.93822   0.00172   0.00000   0.00000   0.00000   1.93822
    t5       -2.09439   0.00016   0.00000   0.00000   0.00000  -2.09439
         Item               Value     Threshold  Converged?
 Maximum Force            0.000000     0.000450     YES
 RMS     Force            0.000000     0.000300     YES
 Maximum Displacement     0.000000     0.001800     YES
 RMS     Displacement     0.000000     0.001200     YES
 Predicted change in Energy=-0.000000D+00
 Optimization completed.
    -- Stationary point found.
                       ----------------------------
                       !   Optimized Parameters   !
                       ! (Angstroms and Degrees)  !
 ----------------------                            ----------------------
 !      Name          Value   Derivative information (Atomic Units)     !
 ------------------------------------------------------------------------
 !       d1          1.5235   -DE/DX =    0.0056                        !
 !       a1        111.0689   -DE/DX =    0.0015                        !
 !       t1        120.0006   -DE/DX =    0.0004                        !
 !       d2          1.0918   -DE/DX =    0.0026                        !
 !       a2        111.4491   -DE/DX =    0.0006                        !
 !       t2       -119.8296   -DE/DX =   -0.0001                        !
 !       d3          1.0898   -DE/DX =    0.0038                        !
 !       d4          1.0968   -DE/DX =   -0.0006                        !
 !       a3        111.0693   -DE/DX =    0.0017                        !
 !       d5          1.0944   -DE/DX =    0.0008                        !
 !       a4        111.1644   -DE/DX =    0.0016                        !
 !       t3        180.0      -DE/DX =    0.0                           !
 !       d6          1.0882   -DE/DX =    0.0048                        !
 !       a5        111.1673   -DE/DX =    0.0015                        !
 !       t4        120.0001   -DE/DX =    0.0002                        !
 !       d7          1.0975   -DE/DX =   -0.0012                        !
 !       a6        111.0517   -DE/DX =    0.0017                        !
 !       t5       -120.0      -DE/DX =    0.0002                        !
 ------------------------------------------------------------------------
 GradGradGradGradGradGradGradGradGradGradGradGradGradGradGradGradGradGrad

 Leave Link  103 at Thu May 27 13:55:33 2021, MaxMem=   13107200 cpu:       0.0
 (Enter /programs/64bit/g09/g09-gfortran/bin/l9999.exe)
 1\1\GINC-MOLMOD\Force\RB3LYP\6-31+G(d,p)\C2H6\OSPITE\27-May-2021\1\\#p
  b3lyp/6-31+g(d,p) force nosym\\c2h6 molecule\\0,1\C\C,1,d1\H,1,d2,2,a
 1\H,1,d3,2,a2,3,t1,0\H,1,d4,2,a3,3,t2,0\H,2,d5,1,a4,3,t3,0\H,2,d6,1,a5
 ,6,t4,0\H,2,d7,1,a6,6,t5,0\\d1=1.52351908\a1=111.06889406\t1=120.00063
 351\d2=1.09177103\a2=111.44908817\t2=-119.82956602\d3=1.08979181\d4=1.
 09675415\a3=111.06932484\d5=1.09439159\a4=111.16440974\t3=179.99999825
 \d6=1.08823744\a5=111.16727327\t4=120.00005299\d7=1.09754246\a6=111.05
 171048\t5=-119.99996539\\Version=EM64L-G09RevA.02\HF=-79.8415125\RMSD=
 1.953e-09\RMSF=1.945e-03\Dipole=0.0012935,-0.0038535,-0.0005125\Quadru
 pole=0.18678,0.1912277,-0.3780077,0.0003407,0.0030965,-0.0031669\PG=C0
 1 [X(C2H6)]\\@


 O WAD SOME POWER THE GIFTIE GIE US       
 TO SEE OURSELS AS OTHERS SEE US.....     
 IT WOULD FRAE MONIE A BLUNDER FREE US,   
                     AND FOOLISH NOTION...
 WHAT AIRS IN DRESS AND GAIT WAD LEA'E US,
                     AND EV'N DEVOTION....
                                          
              (ROBERT BURNS 'TO A LOUSE') 
 Job cpu time:  0 days  0 hours  0 minutes  6.8 seconds.
 File lengths (MBytes):  RWF=      5 Int=      0 D2E=      0 Chk=      1 Scr=      1
 Normal termination of Gaussian 09 at Thu May 27 13:55:33 2021.
