 Entering Gaussian System, Link 0=g09
 Input=c2h6_038.com
 Output=c2h6_038.log
 Initial command:
 /programs/64bit/g09/g09-gfortran/bin/l1.exe /data/scratch/Gau-16731.inp -scrdir=/data/scratch/
 Entering Link 1 = /programs/64bit/g09/g09-gfortran/bin/l1.exe PID=     16733.
  
 Copyright (c) 1988,1990,1992,1993,1995,1998,2003,2009, Gaussian, Inc.
                  All Rights Reserved.
  
 This is part of the Gaussian(R) 09 program.  It is based on
 the Gaussian(R) 03 system (copyright 2003, Gaussian, Inc.),
 the Gaussian(R) 98 system (copyright 1998, Gaussian, Inc.),
 the Gaussian(R) 94 system (copyright 1995, Gaussian, Inc.),
 the Gaussian 92(TM) system (copyright 1992, Gaussian, Inc.),
 the Gaussian 90(TM) system (copyright 1990, Gaussian, Inc.),
 the Gaussian 88(TM) system (copyright 1988, Gaussian, Inc.),
 the Gaussian 86(TM) system (copyright 1986, Carnegie Mellon
 University), and the Gaussian 82(TM) system (copyright 1983,
 Carnegie Mellon University). Gaussian is a federally registered
 trademark of Gaussian, Inc.
  
 This software contains proprietary and confidential information,
 including trade secrets, belonging to Gaussian, Inc.
  
 This software is provided under written license and may be
 used, copied, transmitted, or stored only in accord with that
 written license.
  
 The following legend is applicable only to US Government
 contracts under FAR:
  
                    RESTRICTED RIGHTS LEGEND
  
 Use, reproduction and disclosure by the US Government is
 subject to restrictions as set forth in subparagraphs (a)
 and (c) of the Commercial Computer Software - Restricted
 Rights clause in FAR 52.227-19.
  
 Gaussian, Inc.
 340 Quinnipiac St., Bldg. 40, Wallingford CT 06492
  
  
 ---------------------------------------------------------------
 Warning -- This program may not be used in any manner that
 competes with the business of Gaussian, Inc. or will provide
 assistance to any competitor of Gaussian, Inc.  The licensee
 of this program is prohibited from giving any competitor of
 Gaussian, Inc. access to this program.  By using this program,
 the user acknowledges that Gaussian, Inc. is engaged in the
 business of creating and licensing software in the field of
 computational chemistry and represents and warrants to the
 licensee that it is not a competitor of Gaussian, Inc. and that
 it will not use this program in any manner prohibited above.
 ---------------------------------------------------------------
  

 Cite this work as:
 Gaussian 09, Revision A.02,
 M. J. Frisch, G. W. Trucks, H. B. Schlegel, G. E. Scuseria, 
 M. A. Robb, J. R. Cheeseman, G. Scalmani, V. Barone, B. Mennucci, 
 G. A. Petersson, H. Nakatsuji, M. Caricato, X. Li, H. P. Hratchian, 
 A. F. Izmaylov, J. Bloino, G. Zheng, J. L. Sonnenberg, M. Hada, 
 M. Ehara, K. Toyota, R. Fukuda, J. Hasegawa, M. Ishida, T. Nakajima, 
 Y. Honda, O. Kitao, H. Nakai, T. Vreven, J. A. Montgomery, Jr., 
 J. E. Peralta, F. Ogliaro, M. Bearpark, J. J. Heyd, E. Brothers, 
 K. N. Kudin, V. N. Staroverov, R. Kobayashi, J. Normand, 
 K. Raghavachari, A. Rendell, J. C. Burant, S. S. Iyengar, J. Tomasi, 
 M. Cossi, N. Rega, J. M. Millam, M. Klene, J. E. Knox, J. B. Cross, 
 V. Bakken, C. Adamo, J. Jaramillo, R. Gomperts, R. E. Stratmann, 
 O. Yazyev, A. J. Austin, R. Cammi, C. Pomelli, J. W. Ochterski, 
 R. L. Martin, K. Morokuma, V. G. Zakrzewski, G. A. Voth, 
 P. Salvador, J. J. Dannenberg, S. Dapprich, A. D. Daniels, 
 O. Farkas, J. B. Foresman, J. V. Ortiz, J. Cioslowski, 
 and D. J. Fox, Gaussian, Inc., Wallingford CT, 2009.
 
 ******************************************
 Gaussian 09:  EM64L-G09RevA.02 11-Jun-2009
                27-May-2021 
 ******************************************
 %chk=c2h6_038.chk
 %mem=100MB
 --------------------------------
 #p b3lyp/6-31+g(d,p) force nosym
 --------------------------------
 1/10=7,30=1,38=1/1,3;
 2/12=2,15=1,17=6,18=5,40=1/2;
 3/5=1,6=6,7=111,11=2,16=1,25=1,30=1,71=1,74=-5/1,2,3;
 4//1;
 5/5=2,38=5/2;
 6/7=2,8=2,9=2,10=2,28=1/1;
 7/29=1,30=1/1,2,3,16;
 1/10=7,30=1/3;
 99//99;
 Leave Link    1 at Thu May 27 13:46:34 2021, MaxMem=   13107200 cpu:       0.0
 (Enter /programs/64bit/g09/g09-gfortran/bin/l101.exe)
 -------------
 c2h6 molecule
 -------------
 Symbolic Z-matrix:
 Charge =  0 Multiplicity = 1
 C1
 C2                   1    d1
 H3                   1    d2       2    a1
 H4                   1    d3       2    a2       3    t1       0
 H5                   1    d4       2    a3       3    t2       0
 H6                   2    d5       1    a4       3    t3       0
 H7                   2    d6       1    a5       6    t4       0
 H8                   2    d7       1    a6       6    t5       0
       Variables:
       Constants:
  d1                    1.5315                   
  a1                  112.92289                  
  t1                  120.00124                  
  d2                    1.10241                  
  a2                  112.74249                  
  t2                 -119.6752                   
  d3                    1.10116                  
  d4                    1.09371                  
  a3                  112.92378                  
  d5                    1.09852                  
  a4                  113.10496                  
  t3                  180.                       
  d6                    1.10308                  
  a5                  113.11042                  
  t4                  120.00009                  
  d7                    1.09341                  
  a6                  112.89042                  
  t5                 -119.99989                  
 
 NAtoms=      8 NQM=      8 NQMF=      0 NMic=      0 NMicF=      0 NTot=      8.
                    Isotopes and Nuclear Properties:
 (Nuclear quadrupole moments (NQMom) in fm**2, nuclear magnetic moments (NMagM)
  in nuclear magnetons)

  Atom         1           2           3           4           5           6           7           8
 IAtWgt=          12          12           1           1           1           1           1           1
 AtmWgt=  12.0000000  12.0000000   1.0078250   1.0078250   1.0078250   1.0078250   1.0078250   1.0078250
 NucSpn=           0           0           1           1           1           1           1           1
 AtZEff=   0.0000000   0.0000000   0.0000000   0.0000000   0.0000000   0.0000000   0.0000000   0.0000000
 NQMom=    0.0000000   0.0000000   0.0000000   0.0000000   0.0000000   0.0000000   0.0000000   0.0000000
 NMagM=    0.0000000   0.0000000   2.7928460   2.7928460   2.7928460   2.7928460   2.7928460   2.7928460
 Leave Link  101 at Thu May 27 13:46:34 2021, MaxMem=   13107200 cpu:       0.0
 (Enter /programs/64bit/g09/g09-gfortran/bin/l103.exe)

 GradGradGradGradGradGradGradGradGradGradGradGradGradGradGradGradGradGrad
 Berny optimization.
 Initialization pass.
                       ----------------------------
                       !    Initial Parameters    !
                       ! (Angstroms and Degrees)  !
 ----------------------                            ----------------------
 !      Name          Value   Derivative information (Atomic Units)     !
 ------------------------------------------------------------------------
 !       d1          1.5315   Frozen                                    !
 !       a1        112.9229   Frozen                                    !
 !       t1        120.0012   Frozen                                    !
 !       d2          1.1024   Frozen                                    !
 !       a2        112.7425   Frozen                                    !
 !       t2       -119.6752   Frozen                                    !
 !       d3          1.1012   Frozen                                    !
 !       d4          1.0937   Frozen                                    !
 !       a3        112.9238   Frozen                                    !
 !       d5          1.0985   Frozen                                    !
 !       a4        113.105    Frozen                                    !
 !       t3        180.0      Frozen                                    !
 !       d6          1.1031   Frozen                                    !
 !       a5        113.1104   Frozen                                    !
 !       t4        120.0001   Frozen                                    !
 !       d7          1.0934   Frozen                                    !
 !       a6        112.8904   Frozen                                    !
 !       t5       -119.9999   Frozen                                    !
 ------------------------------------------------------------------------
 Trust Radius=3.00D-01 FncErr=1.00D-07 GrdErr=1.00D-07
 Number of steps in this run=   2 maximum allowed number of steps=   2.
 GradGradGradGradGradGradGradGradGradGradGradGradGradGradGradGradGradGrad

 Leave Link  103 at Thu May 27 13:46:34 2021, MaxMem=   13107200 cpu:       0.0
 (Enter /programs/64bit/g09/g09-gfortran/bin/l202.exe)
                          Input orientation:                          
 ---------------------------------------------------------------------
 Center     Atomic      Atomic             Coordinates (Angstroms)
 Number     Number       Type             X           Y           Z
 ---------------------------------------------------------------------
      1          6           0        0.000000    0.000000    0.000000
      2          6           0        0.000000    0.000000    1.531496
      3          1           0        1.015355    0.000000   -0.429381
      4          1           0       -0.507791   -0.879475   -0.425696
      5          1           0       -0.498714    0.875218   -0.426007
      6          1           0       -1.010402    0.000000    1.962572
      7          1           0        0.507280   -0.878631    1.964459
      8          1           0        0.503652    0.872355    1.956801
 ---------------------------------------------------------------------
                    Distance matrix (angstroms):
                    1          2          3          4          5
     1  C    0.000000
     2  C    1.531496   0.000000
     3  H    1.102413   2.208163   0.000000
     4  H    1.101157   2.204979   1.758824   0.000000
     5  H    1.093711   2.201487   1.748835   1.754717   0.000000
     6  H    2.207397   1.098517   3.134507   2.594209   2.594831
     7  H    2.210978   1.103078   2.600116   2.596770   3.130869
     8  H    2.200849   1.093413   2.591661   3.125415   2.585057
                    6          7          8
     6  H    0.000000
     7  H    1.753669   0.000000
     8  H    1.747397   1.751006   0.000000
 Symmetry turned off by external request.
 Stoichiometry    C2H6
 Framework group  C1[X(C2H6)]
 Deg. of freedom    18
 Full point group                 C1      NOp   1
 Rotational constants (GHZ):     81.6452419     19.5983681     19.5921596
 Leave Link  202 at Thu May 27 13:46:34 2021, MaxMem=   13107200 cpu:       0.0
 (Enter /programs/64bit/g09/g09-gfortran/bin/l301.exe)
 Standard basis: 6-31+G(d,p) (6D, 7F)
 Ernie: Thresh=  0.10000D-02 Tol=  0.10000D-05 Strict=F.
 Integral buffers will be    131072 words long.
 Raffenetti 2 integral format.
 Two-electron integral symmetry is turned off.
    68 basis functions,   106 primitive gaussians,    68 cartesian basis functions
     9 alpha electrons        9 beta electrons
       nuclear repulsion energy        41.9583131448 Hartrees.
 IExCor=  402 DFT=T Ex+Corr=B3LYP ExCW=0 ScaHFX=  0.200000
 ScaDFX=  0.800000  0.720000  1.000000  0.810000 ScalE2=  1.000000  1.000000
 IRadAn=      0 IRanWt=     -1 IRanGd=            0 ICorTp=0
 NAtoms=    8 NActive=    8 NUniq=    8 SFac= 7.50D-01 NAtFMM=   80 NAOKFM=F Big=F
 Leave Link  301 at Thu May 27 13:46:34 2021, MaxMem=   13107200 cpu:       0.0
 (Enter /programs/64bit/g09/g09-gfortran/bin/l302.exe)
 NPDir=0 NMtPBC=     1 NCelOv=     1 NCel=       1 NClECP=     1 NCelD=      1
         NCelK=      1 NCelE2=     1 NClLst=     1 CellRange=     0.0.
 One-electron integrals computed using PRISM.
 NBasis=    68 RedAO= T  NBF=    68
 NBsUse=    68 1.00D-06 NBFU=    68
 Precomputing XC quadrature grid using
 IXCGrd= 2 IRadAn=           0 IRanWt=          -1 IRanGd=           0 AccXCQ= 1.00D-10.
 NRdTot=     510 NPtTot=       65100 NUsed=       68787 NTot=       68819
 NSgBfM=    68    68    68    68    68 NAtAll=     8     8.
 Leave Link  302 at Thu May 27 13:46:34 2021, MaxMem=   13107200 cpu:       0.1
 (Enter /programs/64bit/g09/g09-gfortran/bin/l303.exe)
 DipDrv:  MaxL=1.
 Leave Link  303 at Thu May 27 13:46:34 2021, MaxMem=   13107200 cpu:       0.0
 (Enter /programs/64bit/g09/g09-gfortran/bin/l401.exe)
 Harris functional with IExCor=  402 diagonalized for initial guess.
 ExpMin= 4.38D-02 ExpMax= 3.05D+03 ExpMxC= 4.57D+02 IAcc=2 IRadAn=         0 AccDes= 0.00D+00
 HarFok:  IExCor=  402 AccDes= 0.00D+00 IRadAn=         0 IDoV= 1
 ScaDFX=  1.000000  1.000000  1.000000  1.000000
 FoFCou: FMM=F IPFlag=           0 FMFlag=      100000 FMFlg1=           0
         NFxFlg=           0 DoJE=T BraDBF=F KetDBF=T FulRan=T
         Omega=  0.000000  0.000000  1.000000  0.000000  0.000000 ICntrl=     500 IOpCl=  0
         NMat0=    1 NMatS0=    1 NMatT0=    0 NMatD0=    1 NMtDS0=    0 NMtDT0=    0
         I1Cent=           4 NGrid=           0.
 Symmetry not used in FoFCou.
 Harris En= -79.8961230652983    
 Leave Link  401 at Thu May 27 13:46:36 2021, MaxMem=   13107200 cpu:       1.0
 (Enter /programs/64bit/g09/g09-gfortran/bin/l502.exe)
 Closed shell SCF:
 Requested convergence on RMS density matrix=1.00D-08 within 128 cycles.
 Requested convergence on MAX density matrix=1.00D-06.
 Requested convergence on             energy=1.00D-06.
 No special actions if energy rises.
 Using DIIS extrapolation, IDIIS=  1040.
 Two-electron integral symmetry not used.
        68702 words used for storage of precomputed grid.
 Keep R1 ints in memory in canonical form, NReq=3743087.
 IEnd=      101552 IEndB=      101552 NGot=    13107200 MDV=    10273922
 LenX=    10273922 LenY=    10268857
 Symmetry not used in FoFDir.
 MinBra= 0 MaxBra= 2 Meth= 1.
 IRaf=       0 NMat=   1 IRICut=       1 DoRegI=T DoRafI=F ISym2E= 0 JSym2E=0.

 Cycle   1  Pass 1  IDiag  1:
 E= -79.7114919452507    
 DIIS: error= 4.01D-02 at cycle   1 NSaved=   1.
 NSaved= 1 IEnMin= 1 EnMin= -79.7114919452507     IErMin= 1 ErrMin= 4.01D-02
 ErrMax= 4.01D-02 EMaxC= 1.00D-01 BMatC= 1.14D-01 BMatP= 1.14D-01
 IDIUse=3 WtCom= 5.99D-01 WtEn= 4.01D-01
 Coeff-Com:  0.100D+01
 Coeff-En:   0.100D+01
 Coeff:      0.100D+01
 Gap=     0.277 Goal=   None    Shift=    0.000
 GapD=    0.277 DampG=1.000 DampE=0.500 DampFc=0.5000 IDamp=-1.
 Damping current iteration by 5.00D-01
 RMSDP=9.54D-03 MaxDP=1.40D-01              OVMax= 1.99D-01

 Cycle   2  Pass 1  IDiag  1:
 E= -79.7647511114102     Delta-E=       -0.053259166159 Rises=F Damp=T
 DIIS: error= 1.16D-02 at cycle   2 NSaved=   2.
 NSaved= 2 IEnMin= 2 EnMin= -79.7647511114102     IErMin= 2 ErrMin= 1.16D-02
 ErrMax= 1.16D-02 EMaxC= 1.00D-01 BMatC= 4.85D-03 BMatP= 1.14D-01
 IDIUse=3 WtCom= 8.84D-01 WtEn= 1.16D-01
 Coeff-Com:  0.113D+00 0.887D+00
 Coeff-En:   0.193D+00 0.807D+00
 Coeff:      0.123D+00 0.877D+00
 Gap=     0.394 Goal=   None    Shift=    0.000
 RMSDP=1.29D-03 MaxDP=1.08D-02 DE=-5.33D-02 OVMax= 1.19D-01

 Cycle   3  Pass 1  IDiag  1:
 E= -79.8406874331729     Delta-E=       -0.075936321763 Rises=F Damp=F
 DIIS: error= 2.46D-03 at cycle   3 NSaved=   3.
 NSaved= 3 IEnMin= 3 EnMin= -79.8406874331729     IErMin= 3 ErrMin= 2.46D-03
 ErrMax= 2.46D-03 EMaxC= 1.00D-01 BMatC= 1.95D-04 BMatP= 4.85D-03
 IDIUse=3 WtCom= 9.75D-01 WtEn= 2.46D-02
 Coeff-Com:  0.978D-02 0.126D+00 0.864D+00
 Coeff-En:   0.000D+00 0.000D+00 0.100D+01
 Coeff:      0.954D-02 0.123D+00 0.867D+00
 Gap=     0.359 Goal=   None    Shift=    0.000
 RMSDP=2.19D-04 MaxDP=2.17D-03 DE=-7.59D-02 OVMax= 4.72D-03

 Cycle   4  Pass 1  IDiag  1:
 E= -79.8408593386471     Delta-E=       -0.000171905474 Rises=F Damp=F
 DIIS: error= 6.83D-04 at cycle   4 NSaved=   4.
 NSaved= 4 IEnMin= 4 EnMin= -79.8408593386471     IErMin= 4 ErrMin= 6.83D-04
 ErrMax= 6.83D-04 EMaxC= 1.00D-01 BMatC= 1.09D-05 BMatP= 1.95D-04
 IDIUse=3 WtCom= 9.93D-01 WtEn= 6.83D-03
 Coeff-Com: -0.183D-03-0.600D-02 0.178D+00 0.828D+00
 Coeff-En:   0.000D+00 0.000D+00 0.000D+00 0.100D+01
 Coeff:     -0.181D-03-0.596D-02 0.177D+00 0.829D+00
 Gap=     0.359 Goal=   None    Shift=    0.000
 RMSDP=4.32D-05 MaxDP=3.93D-04 DE=-1.72D-04 OVMax= 1.15D-03

 Cycle   5  Pass 1  IDiag  1:
 E= -79.8408696711793     Delta-E=       -0.000010332532 Rises=F Damp=F
 DIIS: error= 2.51D-05 at cycle   5 NSaved=   5.
 NSaved= 5 IEnMin= 5 EnMin= -79.8408696711793     IErMin= 5 ErrMin= 2.51D-05
 ErrMax= 2.51D-05 EMaxC= 1.00D-01 BMatC= 2.68D-08 BMatP= 1.09D-05
 IDIUse=1 WtCom= 1.00D+00 WtEn= 0.00D+00
 Coeff-Com:  0.410D-03-0.493D-03-0.502D-02-0.124D-01 0.102D+01
 Coeff:      0.410D-03-0.493D-03-0.502D-02-0.124D-01 0.102D+01
 Gap=     0.359 Goal=   None    Shift=    0.000
 RMSDP=2.42D-06 MaxDP=4.57D-05 DE=-1.03D-05 OVMax= 7.85D-05

 Cycle   6  Pass 1  IDiag  1:
 E= -79.8408697008360     Delta-E=       -0.000000029657 Rises=F Damp=F
 DIIS: error= 7.43D-06 at cycle   6 NSaved=   6.
 NSaved= 6 IEnMin= 6 EnMin= -79.8408697008360     IErMin= 6 ErrMin= 7.43D-06
 ErrMax= 7.43D-06 EMaxC= 1.00D-01 BMatC= 1.53D-09 BMatP= 2.68D-08
 IDIUse=1 WtCom= 1.00D+00 WtEn= 0.00D+00
 Coeff-Com:  0.162D-03-0.174D-03-0.319D-02-0.101D-01 0.414D+00 0.599D+00
 Coeff:      0.162D-03-0.174D-03-0.319D-02-0.101D-01 0.414D+00 0.599D+00
 Gap=     0.359 Goal=   None    Shift=    0.000
 RMSDP=5.62D-07 MaxDP=1.14D-05 DE=-2.97D-08 OVMax= 1.59D-05

 Cycle   7  Pass 1  IDiag  1:
 E= -79.8408697021955     Delta-E=       -0.000000001360 Rises=F Damp=F
 DIIS: error= 2.32D-06 at cycle   7 NSaved=   7.
 NSaved= 7 IEnMin= 7 EnMin= -79.8408697021955     IErMin= 7 ErrMin= 2.32D-06
 ErrMax= 2.32D-06 EMaxC= 1.00D-01 BMatC= 1.50D-10 BMatP= 1.53D-09
 IDIUse=1 WtCom= 1.00D+00 WtEn= 0.00D+00
 Coeff-Com: -0.602D-05 0.138D-06-0.316D-03-0.118D-02 0.358D-03 0.236D+00
 Coeff-Com:  0.765D+00
 Coeff:     -0.602D-05 0.138D-06-0.316D-03-0.118D-02 0.358D-03 0.236D+00
 Coeff:      0.765D+00
 Gap=     0.359 Goal=   None    Shift=    0.000
 RMSDP=1.45D-07 MaxDP=2.80D-06 DE=-1.36D-09 OVMax= 3.83D-06

 Cycle   8  Pass 1  IDiag  1:
 E= -79.8408697023424     Delta-E=       -0.000000000147 Rises=F Damp=F
 DIIS: error= 1.26D-07 at cycle   8 NSaved=   8.
 NSaved= 8 IEnMin= 8 EnMin= -79.8408697023424     IErMin= 8 ErrMin= 1.26D-07
 ErrMax= 1.26D-07 EMaxC= 1.00D-01 BMatC= 7.81D-13 BMatP= 1.50D-10
 IDIUse=1 WtCom= 1.00D+00 WtEn= 0.00D+00
 Coeff-Com: -0.312D-05 0.134D-05-0.740D-04-0.307D-03-0.322D-02 0.715D-01
 Coeff-Com:  0.245D+00 0.687D+00
 Coeff:     -0.312D-05 0.134D-05-0.740D-04-0.307D-03-0.322D-02 0.715D-01
 Coeff:      0.245D+00 0.687D+00
 Gap=     0.359 Goal=   None    Shift=    0.000
 RMSDP=1.84D-08 MaxDP=1.80D-07 DE=-1.47D-10 OVMax= 3.32D-07

 Cycle   9  Pass 1  IDiag  1:
 E= -79.8408697023438     Delta-E=       -0.000000000001 Rises=F Damp=F
 DIIS: error= 1.31D-08 at cycle   9 NSaved=   9.
 NSaved= 9 IEnMin= 9 EnMin= -79.8408697023438     IErMin= 9 ErrMin= 1.31D-08
 ErrMax= 1.31D-08 EMaxC= 1.00D-01 BMatC= 8.85D-15 BMatP= 7.81D-13
 IDIUse=1 WtCom= 1.00D+00 WtEn= 0.00D+00
 Coeff-Com: -0.821D-08 0.203D-06 0.809D-05 0.157D-04-0.503D-03-0.370D-02
 Coeff-Com: -0.104D-01 0.567D-01 0.958D+00
 Coeff:     -0.821D-08 0.203D-06 0.809D-05 0.157D-04-0.503D-03-0.370D-02
 Coeff:     -0.104D-01 0.567D-01 0.958D+00
 Gap=     0.359 Goal=   None    Shift=    0.000
 RMSDP=1.84D-09 MaxDP=1.75D-08 DE=-1.36D-12 OVMax= 4.60D-08

 SCF Done:  E(RB3LYP) =  -79.8408697023     A.U. after    9 cycles
             Convg  =    0.1839D-08             -V/T =  2.0114
 KE= 7.893832861579D+01 PE=-2.676183605906D+02 EE= 6.688084912768D+01
 Leave Link  502 at Thu May 27 13:46:45 2021, MaxMem=   13107200 cpu:       8.1
 (Enter /programs/64bit/g09/g09-gfortran/bin/l601.exe)
 Copying SCF densities to generalized density rwf, IOpCl= 0 IROHF=0.

 **********************************************************************

            Population analysis using the SCF density.

 **********************************************************************

 Alpha  occ. eigenvalues --  -10.18021 -10.17980  -0.75146  -0.62056  -0.43123
 Alpha  occ. eigenvalues --   -0.43011  -0.37661  -0.34305  -0.34205
 Alpha virt. eigenvalues --    0.01726   0.02871   0.05439   0.05453   0.08105
 Alpha virt. eigenvalues --    0.08945   0.08956   0.14262   0.19055   0.19207
 Alpha virt. eigenvalues --    0.19965   0.20035   0.25687   0.29896   0.32521
 Alpha virt. eigenvalues --    0.62305   0.64198   0.64247   0.67457   0.67513
 Alpha virt. eigenvalues --    0.69530   0.91114   0.91246   0.96186   0.96379
 Alpha virt. eigenvalues --    1.00789   1.09955   1.10619   1.32717   1.32821
 Alpha virt. eigenvalues --    1.45378   1.65681   1.65740   1.87478   2.05905
 Alpha virt. eigenvalues --    2.06063   2.09724   2.10010   2.13014   2.13169
 Alpha virt. eigenvalues --    2.24446   2.24646   2.38180   2.45620   2.45710
 Alpha virt. eigenvalues --    2.71108   2.78177   2.78296   2.83548   2.87598
 Alpha virt. eigenvalues --    2.87840   3.19822   3.24016   3.41127   3.41477
 Alpha virt. eigenvalues --    3.50399   3.50704   4.32524   4.57935
          Condensed to atoms (all electrons):
              1          2          3          4          5          6
     1  C    5.078093   0.275172   0.402727   0.402906   0.402812  -0.042196
     2  C    0.275172   5.080347  -0.042787  -0.042986  -0.042544   0.402424
     3  H    0.402727  -0.042787   0.560972  -0.030594  -0.031363   0.004136
     4  H    0.402906  -0.042986  -0.030594   0.559848  -0.030582  -0.003736
     5  H    0.402812  -0.042544  -0.031363  -0.030582   0.559229  -0.003718
     6  H   -0.042196   0.402424   0.004136  -0.003736  -0.003718   0.560370
     7  H   -0.042402   0.402554  -0.003744  -0.003694   0.004151  -0.031032
     8  H   -0.042304   0.402491  -0.003721   0.004189  -0.003750  -0.031141
              7          8
     1  C   -0.042402  -0.042304
     2  C    0.402554   0.402491
     3  H   -0.003744  -0.003721
     4  H   -0.003694   0.004189
     5  H    0.004151  -0.003750
     6  H   -0.031032  -0.031141
     7  H    0.560881  -0.030935
     8  H   -0.030935   0.559589
 Mulliken atomic charges:
              1
     1  C   -0.434810
     2  C   -0.434671
     3  H    0.144374
     4  H    0.144647
     5  H    0.145764
     6  H    0.144892
     7  H    0.144222
     8  H    0.145582
 Sum of Mulliken atomic charges =   0.00000
 Mulliken charges with hydrogens summed into heavy atoms:
              1
     1  C   -0.000025
     2  C    0.000025
 Sum of Mulliken charges with hydrogens summed into heavy atoms =   0.00000
 Electronic spatial extent (au):  <R**2>=            149.4225
 Charge=             -0.0000 electrons
 Dipole moment (field-independent basis, Debye):
    X=             -0.0018    Y=              0.0126    Z=              0.0017  Tot=              0.0128
 Quadrupole moment (field-independent basis, Debye-Ang):
   XX=            -15.2102   YY=            -15.1903   ZZ=            -15.4261
   XY=              0.0083   XZ=             -0.0054   YZ=              0.0009
 Traceless Quadrupole moment (field-independent basis, Debye-Ang):
   XX=              0.0653   YY=              0.0852   ZZ=             -0.1506
   XY=              0.0083   XZ=             -0.0054   YZ=              0.0009
 Octapole moment (field-independent basis, Debye-Ang**2):
  XXX=             -0.0298  YYY=              0.0746  ZZZ=            -35.4263  XYY=             -0.0183
  XXY=              0.0212  XXZ=            -11.6496  XZZ=             -0.0177  YZZ=              0.0325
  YYZ=            -11.6512  XYZ=             -0.0027
 Hexadecapole moment (field-independent basis, Debye-Ang**3):
 XXXX=            -31.5261 YYYY=            -31.4596 ZZZZ=           -153.7313 XXXY=              0.0065
 XXXZ=             -1.2361 YYYX=              0.0045 YYYZ=              0.0729 ZZZX=             -0.0000
 ZZZY=              0.0671 XXYY=            -10.5031 XXZZ=            -29.8165 YYZZ=            -29.8091
 XXYZ=              0.0262 YYXZ=              1.2638 ZZXY=             -0.0065
 N-N= 4.195831314476D+01 E-N=-2.676183610024D+02  KE= 7.893832861579D+01
 No NMR shielding tensors so no spin-rotation constants.
 Leave Link  601 at Thu May 27 13:46:45 2021, MaxMem=   13107200 cpu:       0.1
 (Enter /programs/64bit/g09/g09-gfortran/bin/l701.exe)
 Compute integral first derivatives.
 ... and contract with generalized density number  0.
 Leave Link  701 at Thu May 27 13:46:45 2021, MaxMem=   13107200 cpu:       0.1
 (Enter /programs/64bit/g09/g09-gfortran/bin/l702.exe)
 L702 exits ... SP integral derivatives will be done elsewhere.
 Leave Link  702 at Thu May 27 13:46:45 2021, MaxMem=   13107200 cpu:       0.0
 (Enter /programs/64bit/g09/g09-gfortran/bin/l703.exe)
 Compute integral first derivatives, UseDBF=F ICtDFT=           0.
 Integral derivatives from FoFDir, PRISM(SPDF).
 Calling FoFJK, ICntrl=      2127 FMM=F ISym2X=0 I1Cent= 0 IOpClX= 0 NMat=1 NMatS=1 NMatT=0.
 FoFCou: FMM=F IPFlag=           0 FMFlag=      100000 FMFlg1=         800
         NFxFlg=           0 DoJE=F BraDBF=F KetDBF=F FulRan=T
         Omega=  0.000000  0.000000  1.000000  0.000000  0.000000 ICntrl=    2127 IOpCl=  0
         NMat0=    1 NMatS0=    1 NMatT0=    0 NMatD0=    1 NMtDS0=    0 NMtDT0=    0
         I1Cent=           0 NGrid=           0.
 Symmetry not used in FoFCou.
 Leave Link  703 at Thu May 27 13:46:48 2021, MaxMem=   13107200 cpu:       2.1
 (Enter /programs/64bit/g09/g09-gfortran/bin/l716.exe)
 Dipole        =-7.12595942D-04 4.94795256D-03 6.65804947D-04
 -------------------------------------------------------------------
 Center     Atomic                   Forces (Hartrees/Bohr)
 Number     Number              X              Y              Z
 -------------------------------------------------------------------
      1        6           0.002887778   -0.003702547   -0.007213379
      2        6           0.000093039   -0.004227032    0.007727897
      3        1          -0.001798560   -0.000447808    0.005123929
      4        1           0.000658008    0.001378374    0.004276402
      5        1          -0.002027259    0.002367450    0.002964006
      6        1          -0.000550944   -0.000024629   -0.004468463
      7        1          -0.000999612    0.001792070   -0.005541585
      8        1           0.001737549    0.002864122   -0.002868807
 -------------------------------------------------------------------
 Cartesian Forces:  Max     0.007727897 RMS     0.003506730
 -----------------------------------------------------------------------------------------------
                       Internal Coordinate Forces (Hartree/Bohr or radian)
  Cent   Atom   N1       Length/X         N2         Alpha/Y        N3         Beta/Z          J
 -----------------------------------------------------------------------------------------------
      1  C 
      2  C        1  -0.005151(     1)
      3  H        1  -0.003652(     2)      2  -0.008372(     8)
      4  H        1  -0.003058(     3)      2  -0.006982(     9)      3   0.000229(    14)     0
      5  H        1   0.001664(     4)      2  -0.008106(    10)      3  -0.001122(    15)     0
      6  H        2  -0.001247(     5)      1  -0.008981(    11)      3  -0.000033(    16)     0
      7  H        2  -0.004062(     6)      1  -0.008946(    12)      6   0.000058(    17)     0
      8  H        2   0.001970(     7)      1  -0.008153(    13)      6  -0.000138(    18)     0
 -----------------------------------------------------------------------------------------------
 Internal  Forces:  Max     0.008980815 RMS     0.005201262
 Force constants in Cartesian coordinates: 
                1             2             3             4             5 
      1  0.618076D+00
      2 -0.160630D-02  0.625345D+00
      3  0.122714D-02 -0.296547D-02  0.659482D+00
      4 -0.938954D-01 -0.224471D-04  0.155190D-04  0.621162D+00
      5 -0.224393D-04 -0.941141D-01 -0.184553D-03  0.380184D-02  0.621921D+00
      6  0.234144D-04  0.219026D-03 -0.292857D+00 -0.211016D-03  0.242356D-02
      7 -0.289769D+00 -0.264464D-04  0.900040D-01  0.103935D-01  0.000000D+00
      8 -0.262326D-03 -0.700912D-01  0.353264D-04 -0.605528D-05  0.130376D-02
      9  0.104989D+00 -0.625376D-04 -0.121335D+00  0.245775D-01 -0.207774D-05
     10 -0.125565D+00 -0.959393D-01 -0.450494D-01  0.356682D-02  0.390439D-02
     11 -0.958011D-01 -0.236229D+00 -0.776399D-01  0.390524D-02  0.807337D-02
     12 -0.525525D-01 -0.907433D-01 -0.121407D+00 -0.123228D-01 -0.213367D-01
     13 -0.126591D+00  0.975922D-01 -0.461972D-01  0.357414D-02 -0.394021D-02
     14  0.976899D-01 -0.242620D+00  0.807546D-01 -0.393585D-02  0.823115D-02
     15 -0.536640D-01  0.937713D-01 -0.123883D+00 -0.122702D-01  0.215233D-01
     16  0.105109D-01  0.000000D+00  0.000000D+00 -0.292810D+00 -0.102020D-04
     17  0.147528D-04  0.133571D-02  0.000000D+00  0.268960D-03 -0.701334D-01
     18  0.246366D-01  0.199696D-05  0.000000D+00  0.107015D+00 -0.239319D-04
     19  0.360646D-02 -0.395109D-02  0.000000D+00 -0.124418D+00  0.948615D-01
     20 -0.396168D-02  0.818886D-02  0.000000D+00  0.946984D-01 -0.233678D+00
     21 -0.122651D-01  0.212473D-01  0.000000D+00 -0.527235D-01  0.913060D-01
     22  0.362650D-02  0.395249D-02  0.000000D+00 -0.127572D+00 -0.985940D-01
     23  0.394921D-02  0.818463D-02  0.000000D+00 -0.987101D-01 -0.241604D+00
     24 -0.123949D-01 -0.214683D-01  0.000000D+00 -0.540804D-01 -0.937056D-01
                6             7             8             9            10 
      6  0.662925D+00
      7  0.000000D+00  0.292570D+00
      8  0.000000D+00  0.000000D+00  0.544418D-01
      9  0.000000D+00 -0.983648D-01  0.103486D-05  0.101565D+00
     10  0.000000D+00 -0.656481D-02 -0.256107D-01 -0.155238D-01  0.114344D+00
     11  0.000000D+00  0.176850D-02  0.722480D-02  0.418197D-02  0.103956D+00
     12  0.000000D+00  0.417714D-02  0.156235D-01  0.987767D-02  0.490889D-01
     13  0.000000D+00 -0.663016D-02  0.258727D-01 -0.156783D-01  0.142135D-01
     14  0.000000D+00 -0.174162D-02  0.712039D-02 -0.411839D-02  0.136890D-01
     15  0.000000D+00  0.418363D-02 -0.156598D-01  0.989300D-02  0.114843D-01
     16  0.916928D-01  0.000000D+00  0.000000D+00  0.000000D+00  0.000000D+00
     17 -0.143352D-03  0.000000D+00  0.953468D-03  0.000000D+00  0.825564D-03
     18 -0.123548D+00  0.000000D+00  0.000000D+00  0.000000D+00  0.000000D+00
     19 -0.451140D-01  0.000000D+00 -0.822346D-03  0.000000D+00 -0.712031D-03
     20  0.779835D-01  0.000000D+00 -0.474783D-03  0.000000D+00 -0.411093D-03
     21 -0.122327D+00  0.000000D+00  0.000000D+00  0.000000D+00  0.000000D+00
     22 -0.463912D-01  0.000000D+00  0.828266D-03  0.000000D+00  0.717157D-03
     23 -0.804828D-01  0.000000D+00 -0.478197D-03  0.000000D+00 -0.414049D-03
     24 -0.124194D+00  0.000000D+00  0.000000D+00  0.000000D+00  0.000000D+00
               11            12            13            14            15 
     11  0.234404D+00
     12  0.849515D-01  0.101483D+00
     13 -0.138259D-01  0.116093D-01  0.115439D+00
     14 -0.134726D-01  0.115051D-01 -0.105698D+00  0.240741D+00
     15 -0.114935D-01  0.100462D-01  0.502662D-01 -0.881413D-01  0.103944D+00
     16  0.000000D+00  0.000000D+00  0.000000D+00  0.000000D+00  0.000000D+00
     17 -0.476663D-03  0.000000D+00 -0.835013D-03 -0.475804D-03  0.000000D+00
     18  0.000000D+00  0.000000D+00  0.000000D+00  0.000000D+00  0.000000D+00
     19  0.411112D-03  0.000000D+00  0.720181D-03  0.410371D-03  0.000000D+00
     20  0.237356D-03  0.000000D+00  0.415798D-03  0.236929D-03  0.000000D+00
     21  0.000000D+00  0.000000D+00  0.000000D+00  0.000000D+00  0.000000D+00
     22 -0.414071D-03  0.000000D+00 -0.725365D-03 -0.413325D-03  0.000000D+00
     23  0.239063D-03  0.000000D+00  0.418788D-03  0.238632D-03  0.000000D+00
     24  0.000000D+00  0.000000D+00  0.000000D+00  0.000000D+00  0.000000D+00
               16            17            18            19            20 
     16  0.295697D+00
     17 -0.165243D-04  0.545384D-01
     18 -0.100249D+00 -0.387110D-04  0.103493D+00
     19 -0.668820D-02  0.255689D-01 -0.156765D-01  0.113419D+00
     20 -0.175776D-02  0.705829D-02 -0.412004D-02 -0.102744D+00  0.232019D+00
     21  0.426909D-02 -0.156340D-01  0.100063D-01  0.492844D-01 -0.854381D-01
     22 -0.670941D-02 -0.258266D-01 -0.157262D-01  0.140732D-01  0.137600D-01
     23  0.178364D-02  0.720004D-02  0.418068D-02 -0.137348D-01 -0.135874D-01
     24  0.428690D-02  0.158160D-01  0.100481D-01  0.115061D-01  0.115746D-01
               21            22            23            24 
     21  0.102313D+00
     22  0.114351D-01  0.116590D+00
     23 -0.114812D-01  0.106707D+00  0.239807D+00
     24  0.100078D-01  0.506823D-01  0.877833D-01  0.104138D+00
 Force constants in internal coordinates: 
                1             2             3             4             5 
      1  0.292857D+00
      2  0.000000D+00  0.334167D+00
      3  0.000000D+00  0.000000D+00  0.335545D+00
      4  0.000000D+00  0.000000D+00  0.000000D+00  0.343872D+00
      5  0.000000D+00  0.000000D+00  0.000000D+00  0.000000D+00  0.338467D+00
      6  0.000000D+00  0.000000D+00  0.000000D+00  0.000000D+00  0.000000D+00
      7  0.000000D+00  0.000000D+00  0.000000D+00  0.000000D+00  0.000000D+00
      8  0.000000D+00  0.000000D+00  0.000000D+00  0.000000D+00  0.000000D+00
      9  0.000000D+00  0.000000D+00  0.000000D+00  0.000000D+00  0.000000D+00
     10  0.000000D+00  0.000000D+00  0.000000D+00  0.000000D+00  0.000000D+00
     11  0.000000D+00  0.000000D+00  0.000000D+00  0.000000D+00  0.000000D+00
     12  0.000000D+00  0.000000D+00  0.000000D+00  0.000000D+00  0.000000D+00
     13  0.000000D+00  0.000000D+00  0.000000D+00  0.000000D+00  0.000000D+00
     14  0.000000D+00  0.000000D+00  0.000000D+00  0.000000D+00  0.000000D+00
     15  0.000000D+00  0.000000D+00  0.000000D+00  0.000000D+00  0.000000D+00
     16  0.000000D+00  0.000000D+00  0.000000D+00  0.000000D+00  0.000000D+00
     17  0.000000D+00  0.000000D+00  0.000000D+00  0.000000D+00  0.000000D+00
     18  0.000000D+00  0.000000D+00  0.000000D+00  0.000000D+00  0.000000D+00
                6             7             8             9            10 
      6  0.333440D+00
      7  0.000000D+00  0.344212D+00
      8  0.000000D+00  0.000000D+00  0.260256D+00
      9  0.000000D+00  0.000000D+00  0.504106D-01  0.261342D+00
     10  0.000000D+00  0.000000D+00  0.502144D-01  0.508663D-01  0.260715D+00
     11  0.000000D+00  0.000000D+00  0.000000D+00  0.000000D+00  0.000000D+00
     12  0.000000D+00  0.000000D+00  0.000000D+00  0.000000D+00  0.000000D+00
     13  0.000000D+00  0.000000D+00  0.000000D+00  0.000000D+00  0.000000D+00
     14  0.000000D+00  0.000000D+00 -0.674333D-01  0.148785D-03  0.675807D-01
     15  0.000000D+00  0.000000D+00  0.674311D-01 -0.677878D-01 -0.155273D-03
     16  0.000000D+00  0.000000D+00  0.000000D+00  0.000000D+00  0.000000D+00
     17  0.000000D+00  0.000000D+00  0.000000D+00  0.000000D+00  0.000000D+00
     18  0.000000D+00  0.000000D+00  0.000000D+00  0.000000D+00  0.000000D+00
               11            12            13            14            15 
     11  0.261677D+00
     12  0.511834D-01  0.261670D+00
     13  0.508636D-01  0.508723D-01  0.261887D+00
     14  0.000000D+00  0.000000D+00  0.000000D+00  0.200096D+00
     15  0.000000D+00  0.000000D+00  0.000000D+00 -0.946371D-01  0.200092D+00
     16 -0.131277D-05  0.165336D-05  0.000000D+00  0.104794D-01  0.104794D-01
     17 -0.676591D-01 -0.163758D-03  0.677351D-01  0.349314D-02  0.349314D-02
     18  0.674909D-01 -0.674892D-01 -0.308636D-05  0.349314D-02  0.349314D-02
               16            17            18 
     16  0.314383D-01
     17  0.104776D-01  0.198824D+00
     18  0.104849D-01 -0.943668D-01  0.199229D+00
 Leave Link  716 at Thu May 27 13:46:48 2021, MaxMem=   13107200 cpu:       0.0
 (Enter /programs/64bit/g09/g09-gfortran/bin/l103.exe)

 GradGradGradGradGradGradGradGradGradGradGradGradGradGradGradGradGradGrad
 Berny optimization.
 Search for a local minimum.
 Step number   1 out of a maximum of    2
 All quantities printed in internal units (Hartrees-Bohrs-Radians)
 Second derivative matrix not updated -- first step.
 The second derivative matrix:
                          d1        a1        t1        d2        a2
           d1           0.29286
           a1           0.00000   0.26026
           t1          -0.00000  -0.06743   0.20010
           d2           0.00000  -0.00000  -0.00000   0.33417
           a2           0.00000   0.05041   0.00015   0.00000   0.26134
           t2          -0.00000   0.06743  -0.09464  -0.00000  -0.06779
           d3          -0.00000   0.00000   0.00000  -0.00000   0.00000
           d4           0.00000  -0.00000  -0.00000   0.00000  -0.00000
           a3          -0.00000   0.05021   0.06758  -0.00000   0.05087
           d5          -0.00000   0.00000  -0.00000   0.00000  -0.00000
           a4           0.00000   0.00000   0.00000   0.00000   0.00000
           t3           0.00000   0.00000   0.01048   0.00000   0.00000
           d6          -0.00000   0.00000  -0.00000   0.00000   0.00000
           a5          -0.00000   0.00000   0.00000   0.00000  -0.00000
           t4          -0.00000   0.00000   0.00349   0.00000   0.00000
           d7           0.00000   0.00000  -0.00000   0.00000   0.00000
           a6           0.00000   0.00000  -0.00000   0.00000  -0.00000
           t5           0.00000   0.00000   0.00349   0.00000  -0.00000
                          t2        d3        d4        a3        d5
           t2           0.20009
           d3          -0.00000   0.33555
           d4          -0.00000   0.00000   0.34387
           a3          -0.00016   0.00000  -0.00000   0.26071
           d5          -0.00000   0.00000  -0.00000   0.00000   0.33847
           a4           0.00000  -0.00000   0.00000  -0.00000   0.00000
           t3           0.01048  -0.00000  -0.00000   0.00000   0.00000
           d6          -0.00000  -0.00000  -0.00000  -0.00000  -0.00000
           a5           0.00000   0.00000  -0.00000   0.00000   0.00000
           t4           0.00349  -0.00000  -0.00000  -0.00000  -0.00000
           d7           0.00000  -0.00000  -0.00000   0.00000  -0.00000
           a6          -0.00000   0.00000   0.00000  -0.00000   0.00000
           t5           0.00349   0.00000  -0.00000  -0.00000   0.00000
                          a4        t3        d6        a5        t4
           a4           0.26168
           t3          -0.00000   0.03144
           d6          -0.00000   0.00000   0.33344
           a5           0.05118   0.00000   0.00000   0.26167
           t4          -0.06766   0.01048   0.00000  -0.00016   0.19882
           d7           0.00000  -0.00000  -0.00000  -0.00000   0.00000
           a6           0.05086  -0.00000  -0.00000   0.05087   0.06774
           t5           0.06749   0.01048  -0.00000  -0.06749  -0.09437
                          d7        a6        t5
           d7           0.34421
           a6           0.00000   0.26189
           t5          -0.00000  -0.00000   0.19923
     Eigenvalues --- 1000.000001000.000001000.000001000.000001000.00000
     Eigenvalues --- 1000.000001000.000001000.000001000.000001000.00000
     Eigenvalues --- 1000.000001000.000001000.000001000.000001000.00000
     Eigenvalues --- 1000.000001000.000001000.00000
 Angle between quadratic step and forces=  90.00 degrees.
 Linear search not attempted -- first point.
 Variable       Old X    -DE/DX   Delta X   Delta X   Delta X     New X
                                 (Linear)    (Quad)   (Total)
    d1        2.89411  -0.00515   0.00000   0.00000   0.00000   2.89411
    a1        1.97088  -0.00837   0.00000   0.00000   0.00000   1.97088
    t1        2.09442   0.00023   0.00000   0.00000   0.00000   2.09442
    d2        2.08326  -0.00365   0.00000   0.00000   0.00000   2.08326
    a2        1.96773  -0.00698   0.00000   0.00000   0.00000   1.96773
    t2       -2.08873  -0.00112   0.00000   0.00000   0.00000  -2.08873
    d3        2.08088  -0.00306   0.00000   0.00000   0.00000   2.08088
    d4        2.06682   0.00166   0.00000   0.00000   0.00000   2.06682
    a3        1.97089  -0.00811   0.00000   0.00000   0.00000   1.97089
    d5        2.07590  -0.00125   0.00000   0.00000   0.00000   2.07590
    a4        1.97405  -0.00898   0.00000   0.00000   0.00000   1.97405
    t3        3.14159  -0.00003   0.00000   0.00000   0.00000   3.14159
    d6        2.08452  -0.00406   0.00000   0.00000   0.00000   2.08452
    a5        1.97415  -0.00895   0.00000   0.00000   0.00000   1.97415
    t4        2.09440   0.00006   0.00000   0.00000   0.00000   2.09440
    d7        2.06625   0.00197   0.00000   0.00000   0.00000   2.06625
    a6        1.97031  -0.00815   0.00000   0.00000   0.00000   1.97031
    t5       -2.09439  -0.00014   0.00000   0.00000   0.00000  -2.09439
         Item               Value     Threshold  Converged?
 Maximum Force            0.000000     0.000450     YES
 RMS     Force            0.000000     0.000300     YES
 Maximum Displacement     0.000000     0.001800     YES
 RMS     Displacement     0.000000     0.001200     YES
 Predicted change in Energy=-0.000000D+00
 Optimization completed.
    -- Stationary point found.
                       ----------------------------
                       !   Optimized Parameters   !
                       ! (Angstroms and Degrees)  !
 ----------------------                            ----------------------
 !      Name          Value   Derivative information (Atomic Units)     !
 ------------------------------------------------------------------------
 !       d1          1.5315   -DE/DX =   -0.0052                        !
 !       a1        112.9229   -DE/DX =   -0.0084                        !
 !       t1        120.0012   -DE/DX =    0.0002                        !
 !       d2          1.1024   -DE/DX =   -0.0037                        !
 !       a2        112.7425   -DE/DX =   -0.007                         !
 !       t2       -119.6752   -DE/DX =   -0.0011                        !
 !       d3          1.1012   -DE/DX =   -0.0031                        !
 !       d4          1.0937   -DE/DX =    0.0017                        !
 !       a3        112.9238   -DE/DX =   -0.0081                        !
 !       d5          1.0985   -DE/DX =   -0.0012                        !
 !       a4        113.105    -DE/DX =   -0.009                         !
 !       t3        180.0      -DE/DX =    0.0                           !
 !       d6          1.1031   -DE/DX =   -0.0041                        !
 !       a5        113.1104   -DE/DX =   -0.0089                        !
 !       t4        120.0001   -DE/DX =    0.0001                        !
 !       d7          1.0934   -DE/DX =    0.002                         !
 !       a6        112.8904   -DE/DX =   -0.0082                        !
 !       t5       -119.9999   -DE/DX =   -0.0001                        !
 ------------------------------------------------------------------------
 GradGradGradGradGradGradGradGradGradGradGradGradGradGradGradGradGradGrad

 Leave Link  103 at Thu May 27 13:46:48 2021, MaxMem=   13107200 cpu:       0.0
 (Enter /programs/64bit/g09/g09-gfortran/bin/l9999.exe)
 1\1\GINC-MOLMOD\Force\RB3LYP\6-31+G(d,p)\C2H6\OSPITE\27-May-2021\1\\#p
  b3lyp/6-31+g(d,p) force nosym\\c2h6 molecule\\0,1\C\C,1,d1\H,1,d2,2,a
 1\H,1,d3,2,a2,3,t1,0\H,1,d4,2,a3,3,t2,0\H,2,d5,1,a4,3,t3,0\H,2,d6,1,a5
 ,6,t4,0\H,2,d7,1,a6,6,t5,0\\d1=1.53149613\a1=112.9228934\t1=120.001237
 11\d2=1.10241253\a2=112.74249288\t2=-119.67520445\d3=1.10115658\d4=1.0
 9371148\a3=112.92378266\d5=1.09851671\a4=113.10495578\t3=179.99999825\
 d6=1.10307836\a5=113.11042375\t4=120.00009185\d7=1.09341309\a6=112.890
 42407\t5=-119.99988915\\Version=EM64L-G09RevA.02\HF=-79.8408697\RMSD=1
 .839e-09\RMSF=3.507e-03\Dipole=-0.0007126,0.004948,0.0006658\Quadrupol
 e=0.0485861,0.0633673,-0.1119534,0.0061822,-0.0040217,0.0007017\PG=C01
  [X(C2H6)]\\@


 A SOLDIER'S LIFE IS A LIFE OF HONOR, BUT A DOG WOULD NOT LEAD IT.
 -- PRINCE RUPERT, FOUNDER OF THE HUDSON'S BAY COMPANY
 Job cpu time:  0 days  0 hours  0 minutes 11.7 seconds.
 File lengths (MBytes):  RWF=      5 Int=      0 D2E=      0 Chk=      1 Scr=      1
 Normal termination of Gaussian 09 at Thu May 27 13:46:48 2021.
